<LesHouchesEvents version="3.0">
<header>
<!--
#*********************************************************************
#                                                                    *
#                        MadGraph5_aMC@NLO                           *
#                                                                    *
#                           Going Beyond                             *
#                                                                    *
#                   http://madgraph.hep.uiuc.edu                     *
#                   http://madgraph.phys.ucl.ac.be                   *
#                   http://amcatnlo.cern.ch                          *
#                                                                    *
#                     The MadGraph5_aMC@NLO team                     *
#                                                                    *
#....................................................................*
#                                                                    *
# This file contains all the information necessary to reproduce      *
# the events generated:                                              *
#                                                                    *
# 1. software version                                                *
# 2. proc_card          : code generation info including model       *
# 3. param_card         : model primary parameters in the LH format  *
# 4. run_card           : running parameters (collider and cuts)     *
# 5. pythia_card        : present only if pythia has been run        *
# 6. pgs_card           : present only if pgs has been run           *
# 7. delphes_cards      : present only if delphes has been run       *
#                                                                    *
#                                                                    *
#*********************************************************************
-->
<MGVersion>
3.3.0
</MGVersion>
<MG5ProcCard>
<![CDATA[
#************************************************************
#*                     MadGraph5_aMC@NLO                    *
#*                                                          *
#*                *                       *                 *
#*                  *        * *        *                   *
#*                    * * * * 5 * * * *                     *
#*                  *        * *        *                   *
#*                *                       *                 *
#*                                                          *
#*                                                          *
#*         VERSION 3.3.0                 2021-11-12         *
#*                                                          *
#*    The MadGraph5_aMC@NLO Development Team - Find us at   *
#*    https://server06.fynu.ucl.ac.be/projects/madgraph     *
#*                                                          *
#************************************************************
#*                                                          *
#*               Command File for MadGraph5_aMC@NLO         *
#*                                                          *
#*     run as ./bin/mg5_aMC  filename                       *
#*                                                          *
#************************************************************
set group_subprocesses Auto
set ignore_six_quark_processes False
set low_mem_multicore_nlo_generation False
set complex_mass_scheme False
set include_lepton_initiated_processes False
set gauge unitary
set loop_optimized_output True
set loop_color_flows False
set max_npoint_for_channel 0
set default_unset_couplings 99
set max_t_for_channel 99
set zerowidth_tchannel True
set nlo_mixed_expansion True
import model sm
define p = g u c d s u~ c~ d~ s~
define j = g u c d s u~ c~ d~ s~
define l+ = e+ mu+
define l- = e- mu-
define vl = ve vm vt
define vl~ = ve~ vm~ vt~
generate p p > t t~ , (t > b W+) , (t~ > b~ W-)
output tt_bb_100
]]>
</MG5ProcCard>
<MGProcCard>
#*********************************************************************
#                        MadGraph/MadEvent                           *
#                   http://madgraph.hep.uiuc.edu                     *
#                                                                    *
#                          proc_card.dat                             *
#*********************************************************************
#                                                                    *
#            This Files is generated by MADGRAPH 5                   *
#                                                                    *
# WARNING: This Files is generated for MADEVENT (compatibility issue)*
#          This files is NOT a valid MG4 proc_card.dat               *
#          Running this in MG4 will NEVER reproduce the result of MG5*
#                                                                    *
#*********************************************************************
#*********************************************************************
# Process(es) requested : mg2 input                                  *
#*********************************************************************
# Begin PROCESS # This is TAG. Do not modify this line
p p > t t~ , (t > b W+) , (t~ > b~ W-)           #Process
# Be carefull the coupling are here in MG5 convention
          
end_coup           # End the couplings input

done               # this tells MG there are no more procs
# End PROCESS  # This is TAG. Do not modify this line
#*********************************************************************
# Model information                                                  *
#*********************************************************************
# Begin MODEL  # This is TAG. Do not modify this line
sm
# End   MODEL  # This is TAG. Do not modify this line
#*********************************************************************
# Start multiparticle definitions                                    *
#*********************************************************************
# Begin MULTIPARTICLES # This is TAG. Do not modify this line

# End  MULTIPARTICLES # This is TAG. Do not modify this line
</MGProcCard>
<MGRunCard>
<![CDATA[
#*********************************************************************
#                       MadGraph5_aMC@NLO                            *
#                                                                    *
#                     run_card.dat MadEvent                          *
#                                                                    *
#  This file is used to set the parameters of the run.               *
#                                                                    *
#  Some notation/conventions:                                        *
#                                                                    *
#   Lines starting with a '# ' are info or comments                  *
#                                                                    *
#   mind the format:   value    = variable     ! comment             *
#                                                                    *
#   To display more options, you can type the command:               *
#      update full_run_card                                          *
#*********************************************************************
#                                                                    
#*********************************************************************
# Tag name for the run (one word)                                    *
#*********************************************************************
  tag_1     = run_tag ! name of the run 
#*********************************************************************
# Number of events and rnd seed                                      *
# Warning: Do not generate more than 1M events in a single run       *
#*********************************************************************
  100 = nevents ! Number of unweighted events requested 
 21 = iseed   ! rnd seed (0=assigned automatically=default))
#*********************************************************************
# Collider type and energy                                           *
# lpp: 0=No PDF, 1=proton, -1=antiproton, 2=elastic photon of proton,*
#             +/-3=PDF of electron/positron beam                     *
#             +/-4=PDF of muon/antimuon beam                         *
#*********************************************************************
     1        = lpp1    ! beam 1 type 
     1        = lpp2    ! beam 2 type
     6500.0     = ebeam1  ! beam 1 total energy in GeV
     6500.0     = ebeam2  ! beam 2 total energy in GeV
# To see polarised beam options: type "update beam_pol"

#*********************************************************************
# PDF CHOICE: this automatically fixes alpha_s and its evol.         *
# pdlabel: lhapdf=LHAPDF (installation needed) [1412.7420]           *
#          iww=Improved Weizsaecker-Williams Approx.[hep-ph/9310350] *
#          eva=Effective W/Z/A Approx.       [21yy.zzzzz]            *
#          none=No PDF, same as lhapdf with lppx=0                   *
#*********************************************************************
     nn23lo1    = pdlabel     ! PDF set 
     230000    = lhaid     ! if pdlabel=lhapdf, this is the lhapdf number
# To see heavy ion options: type "update ion_pdf"
#*********************************************************************
# Renormalization and factorization scales                           *
#*********************************************************************
 False = fixed_ren_scale  ! if .true. use fixed ren scale
     False = fixed_fac_scale  ! if .true. use fixed fac scale
 91.188  = scale            ! fixed ren scale
 91.188  = dsqrt_q2fact1    ! fixed fact scale for pdf1
 91.188  = dsqrt_q2fact2    ! fixed fact scale for pdf2
 -1 = dynamical_scale_choice ! Choose one of the preselected dynamical choices
 1.0  = scalefact        ! scale factor for event-by-event scales
 
#*********************************************************************
# Type and output format
#*********************************************************************
  False     = gridpack  !True = setting up the grid pack
  -1.0 = time_of_flight ! threshold (in mm) below which the invariant livetime is not written (-1 means not written)
  average =  event_norm       ! average/sum. Normalization of the weight in the LHEF
# To see MLM/CKKW  merging options: type "update MLM" or "update CKKW"

#*********************************************************************
#
#*********************************************************************
# Phase-Space Optimization strategy (basic options)
#*********************************************************************
   0  = nhel          ! using helicities importance sampling or not.
                             ! 0: sum over helicity, 1: importance sampling
   1  = sde_strategy  ! default integration strategy (hep-ph/2021.xxxxx)
                             ! 1 is old strategy (using amp square)
			     ! 2 is new strategy (using only the denominator)
# To see advanced option for Phase-Space optimization: type "update psoptim"			     
#*********************************************************************
# Generation bias, check the wiki page below for more information:   *
#  'cp3.irmp.ucl.ac.be/projects/madgraph/wiki/LOEventGenerationBias' *
#*********************************************************************
 None = bias_module  ! Bias type of bias, [None, ptj_bias, -custom_folder-]
 {} = bias_parameters ! Specifies the parameters of the module.
#
#*******************************                                                 
# Parton level cuts definition *
#*******************************
  0.0  = dsqrt_shat ! minimal shat for full process
#                                                                    
#
#*********************************************************************
# BW cutoff (M+/-bwcutoff*Gamma) ! Define on/off-shell for "$" and decay  
#*********************************************************************
  15.0  = bwcutoff      ! (M+/-bwcutoff*Gamma)
 #*********************************************************************
 # Apply pt/E/eta/dr/mij/kt_durham cuts on decay products or not
 # (note that etmiss/ptll/ptheavy/ht/sorted cuts always apply)
 #*********************************************************************
   False  = cut_decays    ! Cut decay products 
#*********************************************************************
# Standard Cuts                                                      *
#*********************************************************************
# Minimum and maximum pt's (for max, -1 means no cut)                *
#*********************************************************************
 0.0  = ptb       ! minimum pt for the b 
 -1.0  = ptbmax    ! maximum pt for the b
 {} = pt_min_pdg ! pt cut for other particles (use pdg code). Applied on particle and anti-particle
 {}	= pt_max_pdg ! pt cut for other particles (syntax e.g. {6: 100, 25: 50}) 
#
# For display option for energy cut in the partonic center of mass frame type 'update ecut'
#
#*********************************************************************
# Maximum and minimum absolute rapidity (for max, -1 means no cut)   *
#*********************************************************************
 -1.0  = etab    ! max rap for the b
 0.0  = etabmin ! min rap for the b
 {} = eta_min_pdg ! rap cut for other particles (use pdg code). Applied on particle and anti-particle
 {} = eta_max_pdg ! rap cut for other particles (syntax e.g. {6: 2.5, 23: 5})
#*********************************************************************
# Minimum and maximum DeltaR distance                                *
#*********************************************************************
 0.0   = drbb    ! min distance between b's 
 -1.0  = drbbmax ! max distance between b's
#*********************************************************************
# Minimum and maximum invariant mass for pairs                       *
#*********************************************************************
 0.0   = mmbb    ! min invariant mass of a b pair 
 -1.0  = mmbbmax ! max invariant mass of a b pair
 {} = mxx_min_pdg ! min invariant mass of a pair of particles X/X~ (e.g. {6:250})
 {'default': False} = mxx_only_part_antipart ! if True the invariant mass is applied only 
                       ! to pairs of particle/antiparticle and not to pairs of the same pdg codes.  
#*********************************************************************
# Inclusive cuts                                                     *
#*********************************************************************
 0.0  = ptheavy   ! minimum pt for at least one heavy final state
 0.0  = xptb ! minimum pt for at least one b 
 #*********************************************************************
 # Control the Ht(k)=Sum of k leading jets                            *
 #*********************************************************************
 0.0   = ihtmin  !inclusive Ht for all partons (including b)
 -1.0  = ihtmax  !inclusive Ht for all partons (including b)
#*********************************************************************
# maximal pdg code for quark to be considered as a light jet         *
# (otherwise b cuts are applied)                                     *
#*********************************************************************
 4 = maxjetflavor    ! Maximum jet pdg code
#*********************************************************************
#
#*********************************************************************
# Store info for systematics studies                                 *
# WARNING: Do not use for interference type of computation           *
#*********************************************************************
   True  = use_syst      ! Enable systematics studies
#
systematics = systematics_program ! none, systematics [python], SysCalc [depreceted, C++]
['--mur=0.5,1,2', '--muf=0.5,1,2', '--pdf=errorset'] = systematics_arguments ! see: https://cp3.irmp.ucl.ac.be/projects/madgraph/wiki/Systematics#Systematicspythonmodule
]]>
</MGRunCard>
<slha>
######################################################################
## PARAM_CARD AUTOMATICALY GENERATED BY MG5 FOLLOWING UFO MODEL   ####
######################################################################
##                                                                  ##
##  Width set on Auto will be computed following the information    ##
##        present in the decay.py files of the model.               ##
##        See  arXiv:1402.1178 for more details.                    ##
##                                                                  ##
######################################################################

###################################
## INFORMATION FOR MASS
###################################
Block mass 
    5 4.700000e+00 # MB 
    6 1.730000e+02 # MT 
   15 1.777000e+00 # MTA 
   23 9.118800e+01 # MZ 
   25 1.250000e+02 # MH 
## Dependent parameters, given by model restrictions.
## Those values should be edited following the 
## analytical expression. MG5 ignores those values 
## but they are important for interfacing the output of MG5
## to external program such as Pythia.
  1 0.000000e+00 # d : 0.0 
  2 0.000000e+00 # u : 0.0 
  3 0.000000e+00 # s : 0.0 
  4 0.000000e+00 # c : 0.0 
  11 0.000000e+00 # e- : 0.0 
  12 0.000000e+00 # ve : 0.0 
  13 0.000000e+00 # mu- : 0.0 
  14 0.000000e+00 # vm : 0.0 
  16 0.000000e+00 # vt : 0.0 
  21 0.000000e+00 # g : 0.0 
  22 0.000000e+00 # a : 0.0 
  24 8.041900e+01 # w+ : cmath.sqrt(MZ__exp__2/2. + cmath.sqrt(MZ__exp__4/4. - (aEW*cmath.pi*MZ__exp__2)/(Gf*sqrt__2))) 

###################################
## INFORMATION FOR SMINPUTS
###################################
Block sminputs 
    1 1.325070e+02 # aEWM1 
    2 1.166390e-05 # Gf 
    3 1.180000e-01 # aS (Note that Parameter not used if you use a PDF set) 

###################################
## INFORMATION FOR YUKAWA
###################################
Block yukawa 
    5 4.700000e+00 # ymb 
    6 1.730000e+02 # ymt 
   15 1.777000e+00 # ymtau 

###################################
## INFORMATION FOR DECAY
###################################
DECAY   6 1.491500e+00 # WT 
DECAY  23 2.441404e+00 # WZ 
DECAY  24 2.047600e+00 # WW 
DECAY  25 6.382339e-03 # WH 
## Dependent parameters, given by model restrictions.
## Those values should be edited following the 
## analytical expression. MG5 ignores those values 
## but they are important for interfacing the output of MG5
## to external program such as Pythia.
DECAY  1 0.000000e+00 # d : 0.0 
DECAY  2 0.000000e+00 # u : 0.0 
DECAY  3 0.000000e+00 # s : 0.0 
DECAY  4 0.000000e+00 # c : 0.0 
DECAY  5 0.000000e+00 # b : 0.0 
DECAY  11 0.000000e+00 # e- : 0.0 
DECAY  12 0.000000e+00 # ve : 0.0 
DECAY  13 0.000000e+00 # mu- : 0.0 
DECAY  14 0.000000e+00 # vm : 0.0 
DECAY  15 0.000000e+00 # ta- : 0.0 
DECAY  16 0.000000e+00 # vt : 0.0 
DECAY  21 0.000000e+00 # g : 0.0 
DECAY  22 0.000000e+00 # a : 0.0
</slha>
<initrwgt>
<weightgroup name="Central scale variation" combine="envelope">
<weight id="1" MUR="0.5"  MUF="0.5"  PDF="247000" > MUR=0.5 MUF=0.5  </weight>
<weight id="2" MUR="0.5"  MUF="0.5"  DYN_SCALE="1"  PDF="247000" > MUR=0.5 MUF=0.5 dyn_scale_choice=sum pt  </weight>
<weight id="3" MUR="0.5"  MUF="0.5"  DYN_SCALE="2"  PDF="247000" > MUR=0.5 MUF=0.5 dyn_scale_choice=HT  </weight>
<weight id="4" MUR="0.5"  MUF="0.5"  DYN_SCALE="3"  PDF="247000" > MUR=0.5 MUF=0.5 dyn_scale_choice=HT/2  </weight>
<weight id="5" MUR="0.5"  MUF="0.5"  DYN_SCALE="4"  PDF="247000" > MUR=0.5 MUF=0.5 dyn_scale_choice=sqrts  </weight>
<weight id="6" MUR="0.5"  MUF="1.0"  PDF="247000" > MUR=0.5  </weight>
<weight id="7" MUR="0.5"  MUF="1.0"  DYN_SCALE="1"  PDF="247000" > MUR=0.5 dyn_scale_choice=sum pt  </weight>
<weight id="8" MUR="0.5"  MUF="1.0"  DYN_SCALE="2"  PDF="247000" > MUR=0.5 dyn_scale_choice=HT  </weight>
<weight id="9" MUR="0.5"  MUF="1.0"  DYN_SCALE="3"  PDF="247000" > MUR=0.5 dyn_scale_choice=HT/2  </weight>
<weight id="10" MUR="0.5"  MUF="1.0"  DYN_SCALE="4"  PDF="247000" > MUR=0.5 dyn_scale_choice=sqrts  </weight>
<weight id="11" MUR="0.5"  MUF="2.0"  PDF="247000" > MUR=0.5 MUF=2.0  </weight>
<weight id="12" MUR="0.5"  MUF="2.0"  DYN_SCALE="1"  PDF="247000" > MUR=0.5 MUF=2.0 dyn_scale_choice=sum pt  </weight>
<weight id="13" MUR="0.5"  MUF="2.0"  DYN_SCALE="2"  PDF="247000" > MUR=0.5 MUF=2.0 dyn_scale_choice=HT  </weight>
<weight id="14" MUR="0.5"  MUF="2.0"  DYN_SCALE="3"  PDF="247000" > MUR=0.5 MUF=2.0 dyn_scale_choice=HT/2  </weight>
<weight id="15" MUR="0.5"  MUF="2.0"  DYN_SCALE="4"  PDF="247000" > MUR=0.5 MUF=2.0 dyn_scale_choice=sqrts  </weight>
<weight id="16" MUR="1.0"  MUF="0.5"  PDF="247000" > MUF=0.5  </weight>
<weight id="17" MUR="1.0"  MUF="0.5"  DYN_SCALE="1"  PDF="247000" > MUF=0.5 dyn_scale_choice=sum pt  </weight>
<weight id="18" MUR="1.0"  MUF="0.5"  DYN_SCALE="2"  PDF="247000" > MUF=0.5 dyn_scale_choice=HT  </weight>
<weight id="19" MUR="1.0"  MUF="0.5"  DYN_SCALE="3"  PDF="247000" > MUF=0.5 dyn_scale_choice=HT/2  </weight>
<weight id="20" MUR="1.0"  MUF="0.5"  DYN_SCALE="4"  PDF="247000" > MUF=0.5 dyn_scale_choice=sqrts  </weight>
<weight id="21" MUR="1.0"  MUF="1.0"  DYN_SCALE="1"  PDF="247000" > dyn_scale_choice=sum pt  </weight>
<weight id="22" MUR="1.0"  MUF="1.0"  DYN_SCALE="2"  PDF="247000" > dyn_scale_choice=HT  </weight>
<weight id="23" MUR="1.0"  MUF="1.0"  DYN_SCALE="3"  PDF="247000" > dyn_scale_choice=HT/2  </weight>
<weight id="24" MUR="1.0"  MUF="1.0"  DYN_SCALE="4"  PDF="247000" > dyn_scale_choice=sqrts  </weight>
<weight id="25" MUR="1.0"  MUF="2.0"  PDF="247000" > MUF=2.0  </weight>
<weight id="26" MUR="1.0"  MUF="2.0"  DYN_SCALE="1"  PDF="247000" > MUF=2.0 dyn_scale_choice=sum pt  </weight>
<weight id="27" MUR="1.0"  MUF="2.0"  DYN_SCALE="2"  PDF="247000" > MUF=2.0 dyn_scale_choice=HT  </weight>
<weight id="28" MUR="1.0"  MUF="2.0"  DYN_SCALE="3"  PDF="247000" > MUF=2.0 dyn_scale_choice=HT/2  </weight>
<weight id="29" MUR="1.0"  MUF="2.0"  DYN_SCALE="4"  PDF="247000" > MUF=2.0 dyn_scale_choice=sqrts  </weight>
<weight id="30" MUR="2.0"  MUF="0.5"  PDF="247000" > MUR=2.0 MUF=0.5  </weight>
<weight id="31" MUR="2.0"  MUF="0.5"  DYN_SCALE="1"  PDF="247000" > MUR=2.0 MUF=0.5 dyn_scale_choice=sum pt  </weight>
<weight id="32" MUR="2.0"  MUF="0.5"  DYN_SCALE="2"  PDF="247000" > MUR=2.0 MUF=0.5 dyn_scale_choice=HT  </weight>
<weight id="33" MUR="2.0"  MUF="0.5"  DYN_SCALE="3"  PDF="247000" > MUR=2.0 MUF=0.5 dyn_scale_choice=HT/2  </weight>
<weight id="34" MUR="2.0"  MUF="0.5"  DYN_SCALE="4"  PDF="247000" > MUR=2.0 MUF=0.5 dyn_scale_choice=sqrts  </weight>
<weight id="35" MUR="2.0"  MUF="1.0"  PDF="247000" > MUR=2.0  </weight>
<weight id="36" MUR="2.0"  MUF="1.0"  DYN_SCALE="1"  PDF="247000" > MUR=2.0 dyn_scale_choice=sum pt  </weight>
<weight id="37" MUR="2.0"  MUF="1.0"  DYN_SCALE="2"  PDF="247000" > MUR=2.0 dyn_scale_choice=HT  </weight>
<weight id="38" MUR="2.0"  MUF="1.0"  DYN_SCALE="3"  PDF="247000" > MUR=2.0 dyn_scale_choice=HT/2  </weight>
<weight id="39" MUR="2.0"  MUF="1.0"  DYN_SCALE="4"  PDF="247000" > MUR=2.0 dyn_scale_choice=sqrts  </weight>
<weight id="40" MUR="2.0"  MUF="2.0"  PDF="247000" > MUR=2.0 MUF=2.0  </weight>
<weight id="41" MUR="2.0"  MUF="2.0"  DYN_SCALE="1"  PDF="247000" > MUR=2.0 MUF=2.0 dyn_scale_choice=sum pt  </weight>
<weight id="42" MUR="2.0"  MUF="2.0"  DYN_SCALE="2"  PDF="247000" > MUR=2.0 MUF=2.0 dyn_scale_choice=HT  </weight>
<weight id="43" MUR="2.0"  MUF="2.0"  DYN_SCALE="3"  PDF="247000" > MUR=2.0 MUF=2.0 dyn_scale_choice=HT/2  </weight>
<weight id="44" MUR="2.0"  MUF="2.0"  DYN_SCALE="4"  PDF="247000" > MUR=2.0 MUF=2.0 dyn_scale_choice=sqrts  </weight>
</weightgroup> # scale
<weightgroup name="NNPDF23_lo_as_0130_qed" combine="replicas"> # 247000: LO QCD + LO QED PDF set, alphas(MZ)=0.130. mem=0 ; average on replicas; mem=1-100 ; PDF replicas
<weight id="45" MUR="1.0"  MUF="1.0"  PDF="247000" >  </weight>
<weight id="46" MUR="1.0"  MUF="1.0"  PDF="247001" > PDF=247000 MemberID=1 </weight>
<weight id="47" MUR="1.0"  MUF="1.0"  PDF="247002" > PDF=247000 MemberID=2 </weight>
<weight id="48" MUR="1.0"  MUF="1.0"  PDF="247003" > PDF=247000 MemberID=3 </weight>
<weight id="49" MUR="1.0"  MUF="1.0"  PDF="247004" > PDF=247000 MemberID=4 </weight>
<weight id="50" MUR="1.0"  MUF="1.0"  PDF="247005" > PDF=247000 MemberID=5 </weight>
<weight id="51" MUR="1.0"  MUF="1.0"  PDF="247006" > PDF=247000 MemberID=6 </weight>
<weight id="52" MUR="1.0"  MUF="1.0"  PDF="247007" > PDF=247000 MemberID=7 </weight>
<weight id="53" MUR="1.0"  MUF="1.0"  PDF="247008" > PDF=247000 MemberID=8 </weight>
<weight id="54" MUR="1.0"  MUF="1.0"  PDF="247009" > PDF=247000 MemberID=9 </weight>
<weight id="55" MUR="1.0"  MUF="1.0"  PDF="247010" > PDF=247000 MemberID=10 </weight>
<weight id="56" MUR="1.0"  MUF="1.0"  PDF="247011" > PDF=247000 MemberID=11 </weight>
<weight id="57" MUR="1.0"  MUF="1.0"  PDF="247012" > PDF=247000 MemberID=12 </weight>
<weight id="58" MUR="1.0"  MUF="1.0"  PDF="247013" > PDF=247000 MemberID=13 </weight>
<weight id="59" MUR="1.0"  MUF="1.0"  PDF="247014" > PDF=247000 MemberID=14 </weight>
<weight id="60" MUR="1.0"  MUF="1.0"  PDF="247015" > PDF=247000 MemberID=15 </weight>
<weight id="61" MUR="1.0"  MUF="1.0"  PDF="247016" > PDF=247000 MemberID=16 </weight>
<weight id="62" MUR="1.0"  MUF="1.0"  PDF="247017" > PDF=247000 MemberID=17 </weight>
<weight id="63" MUR="1.0"  MUF="1.0"  PDF="247018" > PDF=247000 MemberID=18 </weight>
<weight id="64" MUR="1.0"  MUF="1.0"  PDF="247019" > PDF=247000 MemberID=19 </weight>
<weight id="65" MUR="1.0"  MUF="1.0"  PDF="247020" > PDF=247000 MemberID=20 </weight>
<weight id="66" MUR="1.0"  MUF="1.0"  PDF="247021" > PDF=247000 MemberID=21 </weight>
<weight id="67" MUR="1.0"  MUF="1.0"  PDF="247022" > PDF=247000 MemberID=22 </weight>
<weight id="68" MUR="1.0"  MUF="1.0"  PDF="247023" > PDF=247000 MemberID=23 </weight>
<weight id="69" MUR="1.0"  MUF="1.0"  PDF="247024" > PDF=247000 MemberID=24 </weight>
<weight id="70" MUR="1.0"  MUF="1.0"  PDF="247025" > PDF=247000 MemberID=25 </weight>
<weight id="71" MUR="1.0"  MUF="1.0"  PDF="247026" > PDF=247000 MemberID=26 </weight>
<weight id="72" MUR="1.0"  MUF="1.0"  PDF="247027" > PDF=247000 MemberID=27 </weight>
<weight id="73" MUR="1.0"  MUF="1.0"  PDF="247028" > PDF=247000 MemberID=28 </weight>
<weight id="74" MUR="1.0"  MUF="1.0"  PDF="247029" > PDF=247000 MemberID=29 </weight>
<weight id="75" MUR="1.0"  MUF="1.0"  PDF="247030" > PDF=247000 MemberID=30 </weight>
<weight id="76" MUR="1.0"  MUF="1.0"  PDF="247031" > PDF=247000 MemberID=31 </weight>
<weight id="77" MUR="1.0"  MUF="1.0"  PDF="247032" > PDF=247000 MemberID=32 </weight>
<weight id="78" MUR="1.0"  MUF="1.0"  PDF="247033" > PDF=247000 MemberID=33 </weight>
<weight id="79" MUR="1.0"  MUF="1.0"  PDF="247034" > PDF=247000 MemberID=34 </weight>
<weight id="80" MUR="1.0"  MUF="1.0"  PDF="247035" > PDF=247000 MemberID=35 </weight>
<weight id="81" MUR="1.0"  MUF="1.0"  PDF="247036" > PDF=247000 MemberID=36 </weight>
<weight id="82" MUR="1.0"  MUF="1.0"  PDF="247037" > PDF=247000 MemberID=37 </weight>
<weight id="83" MUR="1.0"  MUF="1.0"  PDF="247038" > PDF=247000 MemberID=38 </weight>
<weight id="84" MUR="1.0"  MUF="1.0"  PDF="247039" > PDF=247000 MemberID=39 </weight>
<weight id="85" MUR="1.0"  MUF="1.0"  PDF="247040" > PDF=247000 MemberID=40 </weight>
<weight id="86" MUR="1.0"  MUF="1.0"  PDF="247041" > PDF=247000 MemberID=41 </weight>
<weight id="87" MUR="1.0"  MUF="1.0"  PDF="247042" > PDF=247000 MemberID=42 </weight>
<weight id="88" MUR="1.0"  MUF="1.0"  PDF="247043" > PDF=247000 MemberID=43 </weight>
<weight id="89" MUR="1.0"  MUF="1.0"  PDF="247044" > PDF=247000 MemberID=44 </weight>
<weight id="90" MUR="1.0"  MUF="1.0"  PDF="247045" > PDF=247000 MemberID=45 </weight>
<weight id="91" MUR="1.0"  MUF="1.0"  PDF="247046" > PDF=247000 MemberID=46 </weight>
<weight id="92" MUR="1.0"  MUF="1.0"  PDF="247047" > PDF=247000 MemberID=47 </weight>
<weight id="93" MUR="1.0"  MUF="1.0"  PDF="247048" > PDF=247000 MemberID=48 </weight>
<weight id="94" MUR="1.0"  MUF="1.0"  PDF="247049" > PDF=247000 MemberID=49 </weight>
<weight id="95" MUR="1.0"  MUF="1.0"  PDF="247050" > PDF=247000 MemberID=50 </weight>
<weight id="96" MUR="1.0"  MUF="1.0"  PDF="247051" > PDF=247000 MemberID=51 </weight>
<weight id="97" MUR="1.0"  MUF="1.0"  PDF="247052" > PDF=247000 MemberID=52 </weight>
<weight id="98" MUR="1.0"  MUF="1.0"  PDF="247053" > PDF=247000 MemberID=53 </weight>
<weight id="99" MUR="1.0"  MUF="1.0"  PDF="247054" > PDF=247000 MemberID=54 </weight>
<weight id="100" MUR="1.0"  MUF="1.0"  PDF="247055" > PDF=247000 MemberID=55 </weight>
<weight id="101" MUR="1.0"  MUF="1.0"  PDF="247056" > PDF=247000 MemberID=56 </weight>
<weight id="102" MUR="1.0"  MUF="1.0"  PDF="247057" > PDF=247000 MemberID=57 </weight>
<weight id="103" MUR="1.0"  MUF="1.0"  PDF="247058" > PDF=247000 MemberID=58 </weight>
<weight id="104" MUR="1.0"  MUF="1.0"  PDF="247059" > PDF=247000 MemberID=59 </weight>
<weight id="105" MUR="1.0"  MUF="1.0"  PDF="247060" > PDF=247000 MemberID=60 </weight>
<weight id="106" MUR="1.0"  MUF="1.0"  PDF="247061" > PDF=247000 MemberID=61 </weight>
<weight id="107" MUR="1.0"  MUF="1.0"  PDF="247062" > PDF=247000 MemberID=62 </weight>
<weight id="108" MUR="1.0"  MUF="1.0"  PDF="247063" > PDF=247000 MemberID=63 </weight>
<weight id="109" MUR="1.0"  MUF="1.0"  PDF="247064" > PDF=247000 MemberID=64 </weight>
<weight id="110" MUR="1.0"  MUF="1.0"  PDF="247065" > PDF=247000 MemberID=65 </weight>
<weight id="111" MUR="1.0"  MUF="1.0"  PDF="247066" > PDF=247000 MemberID=66 </weight>
<weight id="112" MUR="1.0"  MUF="1.0"  PDF="247067" > PDF=247000 MemberID=67 </weight>
<weight id="113" MUR="1.0"  MUF="1.0"  PDF="247068" > PDF=247000 MemberID=68 </weight>
<weight id="114" MUR="1.0"  MUF="1.0"  PDF="247069" > PDF=247000 MemberID=69 </weight>
<weight id="115" MUR="1.0"  MUF="1.0"  PDF="247070" > PDF=247000 MemberID=70 </weight>
<weight id="116" MUR="1.0"  MUF="1.0"  PDF="247071" > PDF=247000 MemberID=71 </weight>
<weight id="117" MUR="1.0"  MUF="1.0"  PDF="247072" > PDF=247000 MemberID=72 </weight>
<weight id="118" MUR="1.0"  MUF="1.0"  PDF="247073" > PDF=247000 MemberID=73 </weight>
<weight id="119" MUR="1.0"  MUF="1.0"  PDF="247074" > PDF=247000 MemberID=74 </weight>
<weight id="120" MUR="1.0"  MUF="1.0"  PDF="247075" > PDF=247000 MemberID=75 </weight>
<weight id="121" MUR="1.0"  MUF="1.0"  PDF="247076" > PDF=247000 MemberID=76 </weight>
<weight id="122" MUR="1.0"  MUF="1.0"  PDF="247077" > PDF=247000 MemberID=77 </weight>
<weight id="123" MUR="1.0"  MUF="1.0"  PDF="247078" > PDF=247000 MemberID=78 </weight>
<weight id="124" MUR="1.0"  MUF="1.0"  PDF="247079" > PDF=247000 MemberID=79 </weight>
<weight id="125" MUR="1.0"  MUF="1.0"  PDF="247080" > PDF=247000 MemberID=80 </weight>
<weight id="126" MUR="1.0"  MUF="1.0"  PDF="247081" > PDF=247000 MemberID=81 </weight>
<weight id="127" MUR="1.0"  MUF="1.0"  PDF="247082" > PDF=247000 MemberID=82 </weight>
<weight id="128" MUR="1.0"  MUF="1.0"  PDF="247083" > PDF=247000 MemberID=83 </weight>
<weight id="129" MUR="1.0"  MUF="1.0"  PDF="247084" > PDF=247000 MemberID=84 </weight>
<weight id="130" MUR="1.0"  MUF="1.0"  PDF="247085" > PDF=247000 MemberID=85 </weight>
<weight id="131" MUR="1.0"  MUF="1.0"  PDF="247086" > PDF=247000 MemberID=86 </weight>
<weight id="132" MUR="1.0"  MUF="1.0"  PDF="247087" > PDF=247000 MemberID=87 </weight>
<weight id="133" MUR="1.0"  MUF="1.0"  PDF="247088" > PDF=247000 MemberID=88 </weight>
<weight id="134" MUR="1.0"  MUF="1.0"  PDF="247089" > PDF=247000 MemberID=89 </weight>
<weight id="135" MUR="1.0"  MUF="1.0"  PDF="247090" > PDF=247000 MemberID=90 </weight>
<weight id="136" MUR="1.0"  MUF="1.0"  PDF="247091" > PDF=247000 MemberID=91 </weight>
<weight id="137" MUR="1.0"  MUF="1.0"  PDF="247092" > PDF=247000 MemberID=92 </weight>
<weight id="138" MUR="1.0"  MUF="1.0"  PDF="247093" > PDF=247000 MemberID=93 </weight>
<weight id="139" MUR="1.0"  MUF="1.0"  PDF="247094" > PDF=247000 MemberID=94 </weight>
<weight id="140" MUR="1.0"  MUF="1.0"  PDF="247095" > PDF=247000 MemberID=95 </weight>
<weight id="141" MUR="1.0"  MUF="1.0"  PDF="247096" > PDF=247000 MemberID=96 </weight>
<weight id="142" MUR="1.0"  MUF="1.0"  PDF="247097" > PDF=247000 MemberID=97 </weight>
<weight id="143" MUR="1.0"  MUF="1.0"  PDF="247098" > PDF=247000 MemberID=98 </weight>
<weight id="144" MUR="1.0"  MUF="1.0"  PDF="247099" > PDF=247000 MemberID=99 </weight>
<weight id="145" MUR="1.0"  MUF="1.0"  PDF="247100" > PDF=247000 MemberID=100 </weight>
</weightgroup>
</initrwgt>
<MGGenerationInfo>
#  Number of Events        :       100
#  Integrated weight (pb)  :       481.594
</MGGenerationInfo>
</header>
<init>
2212 2212 6.500000e+03 6.500000e+03 0 0 247000 247000 -4 1
4.815940e+02 2.944410e+00 4.815940e+02 1
<generator name='MadGraph5_aMC@NLO' version='3.3.0'>please cite 1405.0301 </generator>
</init>
<event>
 8      1 +4.8159400e+02 2.92036000e+02 7.54677100e-03 1.08937400e-01
       21 -1    0    0  503  502 +0.0000000000e+00 +0.0000000000e+00 +2.9910883196e+02 2.9910883196e+02 0.0000000000e+00 0.0000e+00 1.0000e+00
       21 -1    0    0  501  503 -0.0000000000e+00 -0.0000000000e+00 -5.9914080426e+02 5.9914080426e+02 0.0000000000e+00 0.0000e+00 1.0000e+00
        6  2    1    2  501    0 +2.3413843184e+02 -2.1975974434e+01 -4.7556339416e+02 5.5807308929e+02 1.7315103929e+02 0.0000e+00 0.0000e+00
       -6  2    1    2    0  502 -2.3413843184e+02 +2.1975974434e+01 +1.7553142186e+02 3.4017654694e+02 1.7206119349e+02 0.0000e+00 0.0000e+00
        5  1    3    3  501    0 +1.6122801487e+01 -4.9225098382e+01 -1.3692719511e+02 1.4647252916e+02 4.7000000000e+00 0.0000e+00 -1.0000e+00
       24  1    3    3    0    0 +2.1801563036e+02 +2.7249123948e+01 -3.3863619905e+02 4.1160056013e+02 8.0419002446e+01 0.0000e+00 0.0000e+00
       -5  1    4    4    0  502 -1.4861059149e+02 +3.2446466299e+01 +3.3893299511e+01 1.5591256149e+02 4.7000000000e+00 0.0000e+00 1.0000e+00
      -24  1    4    4    0    0 -8.5527840353e+01 -1.0470491865e+01 +1.4163812235e+02 1.8426398545e+02 8.0419002446e+01 0.0000e+00 1.0000e+00
<mgrwt>
<rscale>  2 0.29187466E+03</rscale>
<asrwt>0</asrwt>
<pdfrwt beam="1">  1       21 0.46016744E-01 0.29203601E+03</pdfrwt>
<pdfrwt beam="2">  1       21 0.92175507E-01 0.29203601E+03</pdfrwt>
<totfact> 0.42098398E+03</totfact>
</mgrwt>
<rwgt>
<wgt id='1'> +6.4355266e+02 </wgt>
<wgt id='2'> +5.0331725e+02 </wgt>
<wgt id='3'> +4.9122738e+02 </wgt>
<wgt id='4'> +6.5734148e+02 </wgt>
<wgt id='5'> +4.1550780e+02 </wgt>
<wgt id='6'> +5.7815329e+02 </wgt>
<wgt id='7'> +4.5167024e+02 </wgt>
<wgt id='8'> +4.4097669e+02 </wgt>
<wgt id='9'> +5.9119278e+02 </wgt>
<wgt id='10'> +3.7394277e+02 </wgt>
<wgt id='11'> +5.1916213e+02 </wgt>
<wgt id='12'> +4.0701038e+02 </wgt>
<wgt id='13'> +3.9751718e+02 </wgt>
<wgt id='14'> +5.3071601e+02 </wgt>
<wgt id='15'> +3.3794484e+02 </wgt>
<wgt id='16'> +5.3607081e+02 </wgt>
<wgt id='17'> +4.2643527e+02 </wgt>
<wgt id='18'> +4.1668268e+02 </wgt>
<wgt id='19'> +5.4619092e+02 </wgt>
<wgt id='20'> +3.5522504e+02 </wgt>
<wgt id='21'> +3.8267737e+02 </wgt>
<wgt id='22'> +3.7405763e+02 </wgt>
<wgt id='23'> +4.9122738e+02 </wgt>
<wgt id='24'> +3.1969035e+02 </wgt>
<wgt id='25'> +4.3245515e+02 </wgt>
<wgt id='26'> +3.4483933e+02 </wgt>
<wgt id='27'> +3.3719319e+02 </wgt>
<wgt id='28'> +4.4097669e+02 </wgt>
<wgt id='29'> +2.8891508e+02 </wgt>
<wgt id='30'> +4.5515311e+02 </wgt>
<wgt id='31'> +3.6591339e+02 </wgt>
<wgt id='32'> +3.5790222e+02 </wgt>
<wgt id='33'> +4.6330540e+02 </wgt>
<wgt id='34'> +3.0716805e+02 </wgt>
<wgt id='35'> +4.0889935e+02 </wgt>
<wgt id='36'> +3.2836584e+02 </wgt>
<wgt id='37'> +3.2129019e+02 </wgt>
<wgt id='38'> +4.1668268e+02 </wgt>
<wgt id='39'> +2.7644071e+02 </wgt>
<wgt id='40'> +3.6717781e+02 </wgt>
<wgt id='41'> +2.9589796e+02 </wgt>
<wgt id='42'> +2.8962613e+02 </wgt>
<wgt id='43'> +3.7405763e+02 </wgt>
<wgt id='44'> +2.4982890e+02 </wgt>
<wgt id='45'> +4.8159400e+02 </wgt>
<wgt id='46'> +5.0043259e+02 </wgt>
<wgt id='47'> +5.0541096e+02 </wgt>
<wgt id='48'> +4.9194312e+02 </wgt>
<wgt id='49'> +4.7327809e+02 </wgt>
<wgt id='50'> +6.0702139e+02 </wgt>
<wgt id='51'> +4.6953853e+02 </wgt>
<wgt id='52'> +4.8081271e+02 </wgt>
<wgt id='53'> +4.7172563e+02 </wgt>
<wgt id='54'> +4.8938679e+02 </wgt>
<wgt id='55'> +4.4707589e+02 </wgt>
<wgt id='56'> +4.3010382e+02 </wgt>
<wgt id='57'> +4.7914894e+02 </wgt>
<wgt id='58'> +4.6250732e+02 </wgt>
<wgt id='59'> +5.0426274e+02 </wgt>
<wgt id='60'> +4.8378368e+02 </wgt>
<wgt id='61'> +4.1452998e+02 </wgt>
<wgt id='62'> +4.7396784e+02 </wgt>
<wgt id='63'> +4.8418375e+02 </wgt>
<wgt id='64'> +4.6387815e+02 </wgt>
<wgt id='65'> +5.4418782e+02 </wgt>
<wgt id='66'> +4.7549412e+02 </wgt>
<wgt id='67'> +4.8477723e+02 </wgt>
<wgt id='68'> +5.4374698e+02 </wgt>
<wgt id='69'> +4.9519636e+02 </wgt>
<wgt id='70'> +4.7420854e+02 </wgt>
<wgt id='71'> +4.8540562e+02 </wgt>
<wgt id='72'> +4.4185525e+02 </wgt>
<wgt id='73'> +4.6100999e+02 </wgt>
<wgt id='74'> +5.2051448e+02 </wgt>
<wgt id='75'> +4.9784849e+02 </wgt>
<wgt id='76'> +4.7031829e+02 </wgt>
<wgt id='77'> +4.7496068e+02 </wgt>
<wgt id='78'> +4.5261497e+02 </wgt>
<wgt id='79'> +4.7984156e+02 </wgt>
<wgt id='80'> +4.6434412e+02 </wgt>
<wgt id='81'> +4.6880167e+02 </wgt>
<wgt id='82'> +4.7378746e+02 </wgt>
<wgt id='83'> +4.9538385e+02 </wgt>
<wgt id='84'> +5.2724510e+02 </wgt>
<wgt id='85'> +4.9353190e+02 </wgt>
<wgt id='86'> +4.9109655e+02 </wgt>
<wgt id='87'> +4.8739165e+02 </wgt>
<wgt id='88'> +4.8973622e+02 </wgt>
<wgt id='89'> +4.9044255e+02 </wgt>
<wgt id='90'> +4.9131097e+02 </wgt>
<wgt id='91'> +4.9309436e+02 </wgt>
<wgt id='92'> +4.1898042e+02 </wgt>
<wgt id='93'> +4.8405773e+02 </wgt>
<wgt id='94'> +4.6136796e+02 </wgt>
<wgt id='95'> +4.6679772e+02 </wgt>
<wgt id='96'> +5.3372664e+02 </wgt>
<wgt id='97'> +4.7156565e+02 </wgt>
<wgt id='98'> +4.7223465e+02 </wgt>
<wgt id='99'> +4.5140155e+02 </wgt>
<wgt id='100'> +4.3429706e+02 </wgt>
<wgt id='101'> +5.5046007e+02 </wgt>
<wgt id='102'> +5.0972734e+02 </wgt>
<wgt id='103'> +5.2718484e+02 </wgt>
<wgt id='104'> +4.9353064e+02 </wgt>
<wgt id='105'> +4.8993745e+02 </wgt>
<wgt id='106'> +4.2221236e+02 </wgt>
<wgt id='107'> +4.4535168e+02 </wgt>
<wgt id='108'> +4.0963289e+02 </wgt>
<wgt id='109'> +4.4221982e+02 </wgt>
<wgt id='110'> +4.7225651e+02 </wgt>
<wgt id='111'> +4.6175258e+02 </wgt>
<wgt id='112'> +4.4877165e+02 </wgt>
<wgt id='113'> +4.3789068e+02 </wgt>
<wgt id='114'> +4.5756051e+02 </wgt>
<wgt id='115'> +4.4685684e+02 </wgt>
<wgt id='116'> +5.1298220e+02 </wgt>
<wgt id='117'> +4.7344820e+02 </wgt>
<wgt id='118'> +5.1723758e+02 </wgt>
<wgt id='119'> +4.6417622e+02 </wgt>
<wgt id='120'> +4.6350641e+02 </wgt>
<wgt id='121'> +4.6456470e+02 </wgt>
<wgt id='122'> +4.7323689e+02 </wgt>
<wgt id='123'> +4.8971674e+02 </wgt>
<wgt id='124'> +5.4905201e+02 </wgt>
<wgt id='125'> +5.5361125e+02 </wgt>
<wgt id='126'> +5.0417039e+02 </wgt>
<wgt id='127'> +4.9900072e+02 </wgt>
<wgt id='128'> +4.3210311e+02 </wgt>
<wgt id='129'> +5.4605595e+02 </wgt>
<wgt id='130'> +4.8373807e+02 </wgt>
<wgt id='131'> +5.0254129e+02 </wgt>
<wgt id='132'> +5.0867360e+02 </wgt>
<wgt id='133'> +5.0413247e+02 </wgt>
<wgt id='134'> +4.6703216e+02 </wgt>
<wgt id='135'> +4.8835224e+02 </wgt>
<wgt id='136'> +4.9826866e+02 </wgt>
<wgt id='137'> +4.6649462e+02 </wgt>
<wgt id='138'> +4.6581126e+02 </wgt>
<wgt id='139'> +5.0088981e+02 </wgt>
<wgt id='140'> +4.9278991e+02 </wgt>
<wgt id='141'> +4.9445718e+02 </wgt>
<wgt id='142'> +4.4262646e+02 </wgt>
<wgt id='143'> +4.9277339e+02 </wgt>
<wgt id='144'> +4.6319567e+02 </wgt>
<wgt id='145'> +4.7812089e+02 </wgt>
</rwgt>
</event>
<event>
 8      1 +4.8159400e+02 2.66702500e+02 7.54677100e-03 1.10327200e-01
       21 -1    0    0  501  502 +0.0000000000e+00 +0.0000000000e+00 +1.1496675060e+02 1.1496675060e+02 0.0000000000e+00 0.0000e+00 -1.0000e+00
       21 -1    0    0  502  503 -0.0000000000e+00 -0.0000000000e+00 -7.4424058849e+02 7.4424058849e+02 0.0000000000e+00 0.0000e+00 1.0000e+00
       -6  2    1    2    0  503 -4.9677057143e+01 -1.9663619499e+02 -4.9238088315e+02 5.5997245255e+02 1.7319529535e+02 0.0000e+00 0.0000e+00
        6  2    1    2  501    0 +4.9677057143e+01 +1.9663619499e+02 -1.3689295474e+02 2.9923488654e+02 1.7224468955e+02 0.0000e+00 0.0000e+00
        5  1    4    4  501    0 -3.4857329602e+01 +1.2214356512e+02 -7.5153138979e+01 1.4766234532e+02 4.7000000000e+00 0.0000e+00 -1.0000e+00
       24  1    4    4    0    0 +8.4534386745e+01 +7.4492629867e+01 -6.1739815763e+01 1.5157254122e+02 8.0419002446e+01 0.0000e+00 -1.0000e+00
       -5  1    3    3    0  503 +4.4907429002e+01 -4.4834927096e+01 -1.8227800109e+02 1.9306529348e+02 4.7000000000e+00 0.0000e+00 1.0000e+00
      -24  1    3    3    0    0 -9.4584486145e+01 -1.5180126789e+02 -3.1010288206e+02 3.6690715906e+02 8.0419002446e+01 0.0000e+00 0.0000e+00
<mgrwt>
<rscale>  2 0.26654826E+03</rscale>
<asrwt>0</asrwt>
<pdfrwt beam="1">  1       21 0.17687192E-01 0.26670248E+03</pdfrwt>
<pdfrwt beam="2">  1       21 0.11449856E+00 0.26670248E+03</pdfrwt>
<totfact> 0.16467769E+04</totfact>
</mgrwt>
<rwgt>
<wgt id='1'> +6.3185154e+02 </wgt>
<wgt id='2'> +4.9098449e+02 </wgt>
<wgt id='3'> +4.8434197e+02 </wgt>
<wgt id='4'> +6.3568845e+02 </wgt>
<wgt id='5'> +4.6500530e+02 </wgt>
<wgt id='6'> +5.8085785e+02 </wgt>
<wgt id='7'> +4.4879662e+02 </wgt>
<wgt id='8'> +4.4276637e+02 </wgt>
<wgt id='9'> +5.8461191e+02 </wgt>
<wgt id='10'> +4.2521479e+02 </wgt>
<wgt id='11'> +5.3101913e+02 </wgt>
<wgt id='12'> +4.1109895e+02 </wgt>
<wgt id='13'> +4.0562464e+02 </wgt>
<wgt id='14'> +5.3442920e+02 </wgt>
<wgt id='15'> +3.8969085e+02 </wgt>
<wgt id='16'> +5.2387329e+02 </wgt>
<wgt id='17'> +4.1571407e+02 </wgt>
<wgt id='18'> +4.1038121e+02 </wgt>
<wgt id='19'> +5.2665810e+02 </wgt>
<wgt id='20'> +3.9483124e+02 </wgt>
<wgt id='21'> +3.7999382e+02 </wgt>
<wgt id='22'> +3.7515435e+02 </wgt>
<wgt id='23'> +4.8434197e+02 </wgt>
<wgt id='24'> +3.6104553e+02 </wgt>
<wgt id='25'> +4.4027231e+02 </wgt>
<wgt id='26'> +3.4807540e+02 </wgt>
<wgt id='27'> +3.4368429e+02 </wgt>
<wgt id='28'> +4.4276637e+02 </wgt>
<wgt id='29'> +3.3088251e+02 </wgt>
<wgt id='30'> +4.4400575e+02 </wgt>
<wgt id='31'> +3.5651456e+02 </wgt>
<wgt id='32'> +3.5215435e+02 </wgt>
<wgt id='33'> +4.4623551e+02 </wgt>
<wgt id='34'> +3.3942008e+02 </wgt>
<wgt id='35'> +4.0817219e+02 </wgt>
<wgt id='36'> +3.2588103e+02 </wgt>
<wgt id='37'> +3.2192565e+02 </wgt>
<wgt id='38'> +4.1038121e+02 </wgt>
<wgt id='39'> +3.1037590e+02 </wgt>
<wgt id='40'> +3.7315023e+02 </wgt>
<wgt id='41'> +2.9850793e+02 </wgt>
<wgt id='42'> +2.9492072e+02 </wgt>
<wgt id='43'> +3.7515435e+02 </wgt>
<wgt id='44'> +2.8444600e+02 </wgt>
<wgt id='45'> +4.8159400e+02 </wgt>
<wgt id='46'> +4.9459259e+02 </wgt>
<wgt id='47'> +4.9829973e+02 </wgt>
<wgt id='48'> +4.8559634e+02 </wgt>
<wgt id='49'> +4.6857248e+02 </wgt>
<wgt id='50'> +5.8074372e+02 </wgt>
<wgt id='51'> +4.6678012e+02 </wgt>
<wgt id='52'> +4.7653317e+02 </wgt>
<wgt id='53'> +4.7572405e+02 </wgt>
<wgt id='54'> +4.9359379e+02 </wgt>
<wgt id='55'> +4.6649945e+02 </wgt>
<wgt id='56'> +4.4017129e+02 </wgt>
<wgt id='57'> +4.8785512e+02 </wgt>
<wgt id='58'> +4.6306544e+02 </wgt>
<wgt id='59'> +5.0467688e+02 </wgt>
<wgt id='60'> +4.8060933e+02 </wgt>
<wgt id='61'> +4.1924167e+02 </wgt>
<wgt id='62'> +4.6838805e+02 </wgt>
<wgt id='63'> +4.8726004e+02 </wgt>
<wgt id='64'> +4.7268643e+02 </wgt>
<wgt id='65'> +5.2425492e+02 </wgt>
<wgt id='66'> +4.7593600e+02 </wgt>
<wgt id='67'> +4.8416239e+02 </wgt>
<wgt id='68'> +5.4017412e+02 </wgt>
<wgt id='69'> +4.9019416e+02 </wgt>
<wgt id='70'> +4.8023524e+02 </wgt>
<wgt id='71'> +4.8067579e+02 </wgt>
<wgt id='72'> +4.5585186e+02 </wgt>
<wgt id='73'> +4.5925781e+02 </wgt>
<wgt id='74'> +5.1734803e+02 </wgt>
<wgt id='75'> +4.9728022e+02 </wgt>
<wgt id='76'> +4.7816265e+02 </wgt>
<wgt id='77'> +4.7057234e+02 </wgt>
<wgt id='78'> +4.5157646e+02 </wgt>
<wgt id='79'> +4.8209718e+02 </wgt>
<wgt id='80'> +4.6142866e+02 </wgt>
<wgt id='81'> +4.7498483e+02 </wgt>
<wgt id='82'> +4.7088965e+02 </wgt>
<wgt id='83'> +4.8716306e+02 </wgt>
<wgt id='84'> +5.1258650e+02 </wgt>
<wgt id='85'> +4.8203185e+02 </wgt>
<wgt id='86'> +4.8853277e+02 </wgt>
<wgt id='87'> +4.8410047e+02 </wgt>
<wgt id='88'> +4.8311130e+02 </wgt>
<wgt id='89'> +4.7656422e+02 </wgt>
<wgt id='90'> +4.8509405e+02 </wgt>
<wgt id='91'> +4.8170252e+02 </wgt>
<wgt id='92'> +4.3701113e+02 </wgt>
<wgt id='93'> +4.8113839e+02 </wgt>
<wgt id='94'> +4.6190205e+02 </wgt>
<wgt id='95'> +4.8004827e+02 </wgt>
<wgt id='96'> +5.1661852e+02 </wgt>
<wgt id='97'> +4.6909022e+02 </wgt>
<wgt id='98'> +4.7856158e+02 </wgt>
<wgt id='99'> +4.4677839e+02 </wgt>
<wgt id='100'> +4.3214791e+02 </wgt>
<wgt id='101'> +5.4045761e+02 </wgt>
<wgt id='102'> +5.0624519e+02 </wgt>
<wgt id='103'> +5.1080117e+02 </wgt>
<wgt id='104'> +4.9267855e+02 </wgt>
<wgt id='105'> +4.9509058e+02 </wgt>
<wgt id='106'> +4.4009951e+02 </wgt>
<wgt id='107'> +4.5590713e+02 </wgt>
<wgt id='108'> +4.2640480e+02 </wgt>
<wgt id='109'> +4.5563516e+02 </wgt>
<wgt id='110'> +4.7062588e+02 </wgt>
<wgt id='111'> +4.6807259e+02 </wgt>
<wgt id='112'> +4.6245392e+02 </wgt>
<wgt id='113'> +4.5309910e+02 </wgt>
<wgt id='114'> +4.7422998e+02 </wgt>
<wgt id='115'> +4.5370803e+02 </wgt>
<wgt id='116'> +5.0639061e+02 </wgt>
<wgt id='117'> +4.7485456e+02 </wgt>
<wgt id='118'> +5.0669168e+02 </wgt>
<wgt id='119'> +4.7771579e+02 </wgt>
<wgt id='120'> +4.7356323e+02 </wgt>
<wgt id='121'> +4.7255186e+02 </wgt>
<wgt id='122'> +4.7527743e+02 </wgt>
<wgt id='123'> +4.8280295e+02 </wgt>
<wgt id='124'> +5.3837641e+02 </wgt>
<wgt id='125'> +5.5044784e+02 </wgt>
<wgt id='126'> +4.9385595e+02 </wgt>
<wgt id='127'> +4.8976336e+02 </wgt>
<wgt id='128'> +4.4098736e+02 </wgt>
<wgt id='129'> +5.3295978e+02 </wgt>
<wgt id='130'> +4.7632538e+02 </wgt>
<wgt id='131'> +4.9223352e+02 </wgt>
<wgt id='132'> +5.1010352e+02 </wgt>
<wgt id='133'> +5.0180262e+02 </wgt>
<wgt id='134'> +4.7404770e+02 </wgt>
<wgt id='135'> +4.8336811e+02 </wgt>
<wgt id='136'> +5.0941947e+02 </wgt>
<wgt id='137'> +4.6888728e+02 </wgt>
<wgt id='138'> +4.6270849e+02 </wgt>
<wgt id='139'> +4.9668920e+02 </wgt>
<wgt id='140'> +4.9016607e+02 </wgt>
<wgt id='141'> +4.9908943e+02 </wgt>
<wgt id='142'> +4.3498283e+02 </wgt>
<wgt id='143'> +4.9198509e+02 </wgt>
<wgt id='144'> +4.6394413e+02 </wgt>
<wgt id='145'> +4.7232156e+02 </wgt>
</rwgt>
</event>
<event>
 8      1 +4.8159400e+02 1.91865000e+02 7.54677100e-03 1.15881100e-01
       21 -1    0    0  501  502 +0.0000000000e+00 +0.0000000000e+00 +1.1309152046e+02 1.1309152046e+02 0.0000000000e+00 0.0000e+00 1.0000e+00
       21 -1    0    0  502  503 -0.0000000000e+00 -0.0000000000e+00 -3.1677858307e+02 3.1677858307e+02 0.0000000000e+00 0.0000e+00 1.0000e+00
       -6  2    1    2    0  503 -5.9216377909e+01 -1.5690733073e+01 -1.2933227088e+02 2.2410125467e+02 1.7245798775e+02 0.0000e+00 0.0000e+00
        6  2    1    2  501    0 +5.9216377909e+01 +1.5690733073e+01 -7.4354791730e+01 2.0576884886e+02 1.8182245623e+02 0.0000e+00 0.0000e+00
        5  1    4    4  501    0 +2.0251958186e+01 -4.6078931086e+00 -1.0653698318e+02 1.0864434304e+02 4.7000000000e+00 0.0000e+00 -1.0000e+00
       24  1    4    4    0    0 +3.8964419723e+01 +2.0298626181e+01 +3.2182191450e+01 9.7124505816e+01 8.0419002446e+01 0.0000e+00 0.0000e+00
       -5  1    3    3    0  503 -8.7289650519e+00 +2.6113867670e-02 -1.2745230707e+02 1.2783730320e+02 4.7000000000e+00 0.0000e+00 1.0000e+00
      -24  1    3    3    0    0 -5.0487412857e+01 -1.5716846940e+01 -1.8799638116e+00 9.6263951472e+01 8.0419002446e+01 0.0000e+00 0.0000e+00
<mgrwt>
<rscale>  2 0.18961321E+03</rscale>
<asrwt>0</asrwt>
<pdfrwt beam="1">  1       21 0.17398695E-01 0.19186502E+03</pdfrwt>
<pdfrwt beam="2">  1       21 0.48735167E-01 0.19186502E+03</pdfrwt>
<totfact> 0.12018408E+05</totfact>
</mgrwt>
<rwgt>
<wgt id='1'> +6.1287622e+02 </wgt>
<wgt id='2'> +5.9730593e+02 </wgt>
<wgt id='3'> +5.8242430e+02 </wgt>
<wgt id='4'> +7.4942507e+02 </wgt>
<wgt id='5'> +4.8228532e+02 </wgt>
<wgt id='6'> +5.9142145e+02 </wgt>
<wgt id='7'> +5.7529331e+02 </wgt>
<wgt id='8'> +5.5957589e+02 </wgt>
<wgt id='9'> +7.3009773e+02 </wgt>
<wgt id='10'> +4.5667349e+02 </wgt>
<wgt id='11'> +5.5993906e+02 </wgt>
<wgt id='12'> +5.4445832e+02 </wgt>
<wgt id='13'> +5.2952665e+02 </wgt>
<wgt id='14'> +7.0145611e+02 </wgt>
<wgt id='15'> +4.3174078e+02 </wgt>
<wgt id='16'> +4.9906460e+02 </wgt>
<wgt id='17'> +4.8822219e+02 </wgt>
<wgt id='18'> +4.7796584e+02 </wgt>
<wgt id='19'> +5.9784240e+02 </wgt>
<wgt id='20'> +4.0583379e+02 </wgt>
<wgt id='21'> +4.7022966e+02 </wgt>
<wgt id='22'> +4.5921532e+02 </wgt>
<wgt id='23'> +5.8242430e+02 </wgt>
<wgt id='24'> +3.8428192e+02 </wgt>
<wgt id='25'> +4.5595792e+02 </wgt>
<wgt id='26'> +4.4502595e+02 </wgt>
<wgt id='27'> +4.3455545e+02 </wgt>
<wgt id='28'> +5.5957589e+02 </wgt>
<wgt id='29'> +3.6330153e+02 </wgt>
<wgt id='30'> +4.1997476e+02 </wgt>
<wgt id='31'> +4.1161523e+02 </wgt>
<wgt id='32'> +4.0352856e+02 </wgt>
<wgt id='33'> +4.9061868e+02 </wgt>
<wgt id='34'> +3.4625643e+02 </wgt>
<wgt id='35'> +4.0527283e+02 </wgt>
<wgt id='36'> +3.9644590e+02 </wgt>
<wgt id='37'> +3.8769820e+02 </wgt>
<wgt id='38'> +4.7796584e+02 </wgt>
<wgt id='39'> +3.2786843e+02 </wgt>
<wgt id='40'> +3.8369946e+02 </wgt>
<wgt id='41'> +3.7519691e+02 </wgt>
<wgt id='42'> +3.6687880e+02 </wgt>
<wgt id='43'> +4.5921532e+02 </wgt>
<wgt id='44'> +3.0996800e+02 </wgt>
<wgt id='45'> +4.8159400e+02 </wgt>
<wgt id='46'> +4.7976349e+02 </wgt>
<wgt id='47'> +4.9625178e+02 </wgt>
<wgt id='48'> +4.8135620e+02 </wgt>
<wgt id='49'> +4.8055104e+02 </wgt>
<wgt id='50'> +5.5262053e+02 </wgt>
<wgt id='51'> +4.7244650e+02 </wgt>
<wgt id='52'> +4.7880172e+02 </wgt>
<wgt id='53'> +4.8794024e+02 </wgt>
<wgt id='54'> +4.8432164e+02 </wgt>
<wgt id='55'> +4.3421677e+02 </wgt>
<wgt id='56'> +4.5120549e+02 </wgt>
<wgt id='57'> +4.7027268e+02 </wgt>
<wgt id='58'> +4.8687458e+02 </wgt>
<wgt id='59'> +4.7407018e+02 </wgt>
<wgt id='60'> +4.6200809e+02 </wgt>
<wgt id='61'> +4.7165642e+02 </wgt>
<wgt id='62'> +4.7482666e+02 </wgt>
<wgt id='63'> +4.8202347e+02 </wgt>
<wgt id='64'> +4.7903655e+02 </wgt>
<wgt id='65'> +5.6281988e+02 </wgt>
<wgt id='66'> +4.7004774e+02 </wgt>
<wgt id='67'> +4.8581899e+02 </wgt>
<wgt id='68'> +5.1289973e+02 </wgt>
<wgt id='69'> +4.6684123e+02 </wgt>
<wgt id='70'> +4.7449688e+02 </wgt>
<wgt id='71'> +4.9065974e+02 </wgt>
<wgt id='72'> +4.7372440e+02 </wgt>
<wgt id='73'> +4.7651265e+02 </wgt>
<wgt id='74'> +4.9341612e+02 </wgt>
<wgt id='75'> +4.9094931e+02 </wgt>
<wgt id='76'> +4.6930490e+02 </wgt>
<wgt id='77'> +4.6362892e+02 </wgt>
<wgt id='78'> +4.8338824e+02 </wgt>
<wgt id='79'> +4.6187577e+02 </wgt>
<wgt id='80'> +4.7827669e+02 </wgt>
<wgt id='81'> +4.7409299e+02 </wgt>
<wgt id='82'> +4.9449099e+02 </wgt>
<wgt id='83'> +4.8919253e+02 </wgt>
<wgt id='84'> +5.2502764e+02 </wgt>
<wgt id='85'> +5.0490393e+02 </wgt>
<wgt id='86'> +4.7697716e+02 </wgt>
<wgt id='87'> +4.8093700e+02 </wgt>
<wgt id='88'> +4.8808347e+02 </wgt>
<wgt id='89'> +4.9149112e+02 </wgt>
<wgt id='90'> +4.8665959e+02 </wgt>
<wgt id='91'> +5.1131406e+02 </wgt>
<wgt id='92'> +4.4950116e+02 </wgt>
<wgt id='93'> +4.7242566e+02 </wgt>
<wgt id='94'> +4.8068670e+02 </wgt>
<wgt id='95'> +4.6463481e+02 </wgt>
<wgt id='96'> +5.1510843e+02 </wgt>
<wgt id='97'> +4.8972634e+02 </wgt>
<wgt id='98'> +4.6005836e+02 </wgt>
<wgt id='99'> +4.6872926e+02 </wgt>
<wgt id='100'> +4.8129165e+02 </wgt>
<wgt id='101'> +5.0147592e+02 </wgt>
<wgt id='102'> +4.6511461e+02 </wgt>
<wgt id='103'> +5.1951115e+02 </wgt>
<wgt id='104'> +4.7920874e+02 </wgt>
<wgt id='105'> +5.0205327e+02 </wgt>
<wgt id='106'> +4.4840162e+02 </wgt>
<wgt id='107'> +4.7938427e+02 </wgt>
<wgt id='108'> +4.3667706e+02 </wgt>
<wgt id='109'> +4.5594000e+02 </wgt>
<wgt id='110'> +4.8344878e+02 </wgt>
<wgt id='111'> +4.7087150e+02 </wgt>
<wgt id='112'> +4.6202018e+02 </wgt>
<wgt id='113'> +4.4553164e+02 </wgt>
<wgt id='114'> +4.8384392e+02 </wgt>
<wgt id='115'> +4.8430043e+02 </wgt>
<wgt id='116'> +4.7793102e+02 </wgt>
<wgt id='117'> +4.8826537e+02 </wgt>
<wgt id='118'> +4.9044612e+02 </wgt>
<wgt id='119'> +4.6519890e+02 </wgt>
<wgt id='120'> +4.8051597e+02 </wgt>
<wgt id='121'> +4.7031005e+02 </wgt>
<wgt id='122'> +4.7617190e+02 </wgt>
<wgt id='123'> +4.8605142e+02 </wgt>
<wgt id='124'> +5.0980916e+02 </wgt>
<wgt id='125'> +5.1150969e+02 </wgt>
<wgt id='126'> +4.9748197e+02 </wgt>
<wgt id='127'> +4.9400304e+02 </wgt>
<wgt id='128'> +4.4926438e+02 </wgt>
<wgt id='129'> +5.4202177e+02 </wgt>
<wgt id='130'> +4.8330779e+02 </wgt>
<wgt id='131'> +5.1439436e+02 </wgt>
<wgt id='132'> +4.7633094e+02 </wgt>
<wgt id='133'> +4.7641341e+02 </wgt>
<wgt id='134'> +4.5441596e+02 </wgt>
<wgt id='135'> +4.9342223e+02 </wgt>
<wgt id='136'> +4.6256508e+02 </wgt>
<wgt id='137'> +4.5322165e+02 </wgt>
<wgt id='138'> +4.3581817e+02 </wgt>
<wgt id='139'> +4.8954216e+02 </wgt>
<wgt id='140'> +5.1172824e+02 </wgt>
<wgt id='141'> +4.8011055e+02 </wgt>
<wgt id='142'> +4.8672068e+02 </wgt>
<wgt id='143'> +4.7743680e+02 </wgt>
<wgt id='144'> +4.8326861e+02 </wgt>
<wgt id='145'> +4.8252801e+02 </wgt>
</rwgt>
</event>
<event>
 8      1 +4.8159400e+02 2.04234300e+02 7.54677100e-03 1.14757100e-01
       21 -1    0    0  501  502 +0.0000000000e+00 +0.0000000000e+00 +1.4034387310e+03 1.4034387310e+03 0.0000000000e+00 0.0000e+00 1.0000e+00
       21 -1    0    0  502  503 -0.0000000000e+00 -0.0000000000e+00 -8.1649411010e+01 8.1649411010e+01 0.0000000000e+00 0.0000e+00 1.0000e+00
       -6  2    1    2    0  503 +6.6877644742e+01 -7.5308581146e+01 +5.9664428371e+01 2.0654564830e+02 1.7016832567e+02 0.0000e+00 0.0000e+00
        6  2    1    2  501    0 -6.6877644742e+01 +7.5308581146e+01 +1.2621248916e+03 1.2785424937e+03 1.7767291411e+02 0.0000e+00 0.0000e+00
        5  1    4    4  501    0 -2.3027277386e+01 +9.7112230258e+01 +4.4891165504e+02 4.5989651532e+02 4.7000000000e+00 0.0000e+00 -1.0000e+00
       24  1    4    4    0    0 -4.3850367356e+01 -2.1803649111e+01 +8.1321323656e+02 8.1864597837e+02 8.0419002446e+01 0.0000e+00 0.0000e+00
       -5  1    3    3    0  503 +9.6584638928e+01 -3.4054680623e+01 +3.3884160422e+01 1.0797471962e+02 4.7000000000e+00 0.0000e+00 1.0000e+00
      -24  1    3    3    0    0 -2.9706994186e+01 -4.1253900524e+01 +2.5780267949e+01 9.8570928685e+01 8.0419002446e+01 0.0000e+00 1.0000e+00
<mgrwt>
<rscale>  2 0.20259113E+03</rscale>
<asrwt>0</asrwt>
<pdfrwt beam="1">  1       21 0.21591363E+00 0.20423434E+03</pdfrwt>
<pdfrwt beam="2">  1       21 0.12561449E-01 0.20423434E+03</pdfrwt>
<totfact> 0.57017650E+03</totfact>
</mgrwt>
<rwgt>
<wgt id='1'> +6.6340102e+02 </wgt>
<wgt id='2'> +5.2226132e+02 </wgt>
<wgt id='3'> +4.8964483e+02 </wgt>
<wgt id='4'> +6.7515680e+02 </wgt>
<wgt id='5'> +3.8586103e+02 </wgt>
<wgt id='6'> +5.8943435e+02 </wgt>
<wgt id='7'> +4.5962833e+02 </wgt>
<wgt id='8'> +4.3079198e+02 </wgt>
<wgt id='9'> +6.0036043e+02 </wgt>
<wgt id='10'> +3.4092822e+02 </wgt>
<wgt id='11'> +5.1869883e+02 </wgt>
<wgt id='12'> +4.0611429e+02 </wgt>
<wgt id='13'> +3.8106181e+02 </wgt>
<wgt id='14'> +5.2820012e+02 </wgt>
<wgt id='15'> +3.0287779e+02 </wgt>
<wgt id='16'> +5.4202806e+02 </wgt>
<wgt id='17'> +4.3793112e+02 </wgt>
<wgt id='18'> +4.1241642e+02 </wgt>
<wgt id='19'> +5.5064761e+02 </wgt>
<wgt id='20'> +3.2853929e+02 </wgt>
<wgt id='21'> +3.8541156e+02 </wgt>
<wgt id='22'> +3.6284603e+02 </wgt>
<wgt id='23'> +4.8964483e+02 </wgt>
<wgt id='24'> +2.9028150e+02 </wgt>
<wgt id='25'> +4.2379995e+02 </wgt>
<wgt id='26'> +3.4053850e+02 </wgt>
<wgt id='27'> +3.2095947e+02 </wgt>
<wgt id='28'> +4.3079198e+02 </wgt>
<wgt id='29'> +2.5788367e+02 </wgt>
<wgt id='30'> +4.5690553e+02 </wgt>
<wgt id='31'> +3.7289336e+02 </wgt>
<wgt id='32'> +3.5209099e+02 </wgt>
<wgt id='33'> +4.6379763e+02 </wgt>
<wgt id='34'> +2.8310213e+02 </wgt>
<wgt id='35'> +4.0596231e+02 </wgt>
<wgt id='36'> +3.2817356e+02 </wgt>
<wgt id='37'> +3.0977142e+02 </wgt>
<wgt id='38'> +4.1241642e+02 </wgt>
<wgt id='39'> +2.5013541e+02 </wgt>
<wgt id='40'> +3.5724450e+02 </wgt>
<wgt id='41'> +2.8996465e+02 </wgt>
<wgt id='42'> +2.7401174e+02 </wgt>
<wgt id='43'> +3.6284603e+02 </wgt>
<wgt id='44'> +2.2221822e+02 </wgt>
<wgt id='45'> +4.8159400e+02 </wgt>
<wgt id='46'> +4.9428328e+02 </wgt>
<wgt id='47'> +5.1019757e+02 </wgt>
<wgt id='48'> +4.8133476e+02 </wgt>
<wgt id='49'> +4.3813534e+02 </wgt>
<wgt id='50'> +5.7670540e+02 </wgt>
<wgt id='51'> +4.5031833e+02 </wgt>
<wgt id='52'> +4.3917794e+02 </wgt>
<wgt id='53'> +4.9169831e+02 </wgt>
<wgt id='54'> +5.1402276e+02 </wgt>
<wgt id='55'> +5.4560234e+02 </wgt>
<wgt id='56'> +4.6041624e+02 </wgt>
<wgt id='57'> +5.1251296e+02 </wgt>
<wgt id='58'> +4.2831693e+02 </wgt>
<wgt id='59'> +5.2178557e+02 </wgt>
<wgt id='60'> +4.7264450e+02 </wgt>
<wgt id='61'> +4.0866388e+02 </wgt>
<wgt id='62'> +4.3668488e+02 </wgt>
<wgt id='63'> +5.1089555e+02 </wgt>
<wgt id='64'> +4.8162704e+02 </wgt>
<wgt id='65'> +4.3697190e+02 </wgt>
<wgt id='66'> +4.9053682e+02 </wgt>
<wgt id='67'> +4.8569877e+02 </wgt>
<wgt id='68'> +6.0559414e+02 </wgt>
<wgt id='69'> +5.3440338e+02 </wgt>
<wgt id='70'> +5.3357286e+02 </wgt>
<wgt id='71'> +4.4131206e+02 </wgt>
<wgt id='72'> +4.2879860e+02 </wgt>
<wgt id='73'> +4.2998775e+02 </wgt>
<wgt id='74'> +5.6752208e+02 </wgt>
<wgt id='75'> +5.3903942e+02 </wgt>
<wgt id='76'> +4.9490106e+02 </wgt>
<wgt id='77'> +4.4627656e+02 </wgt>
<wgt id='78'> +4.0845289e+02 </wgt>
<wgt id='79'> +5.2130404e+02 </wgt>
<wgt id='80'> +4.1742159e+02 </wgt>
<wgt id='81'> +5.0505430e+02 </wgt>
<wgt id='82'> +4.7778825e+02 </wgt>
<wgt id='83'> +4.7864049e+02 </wgt>
<wgt id='84'> +4.6953516e+02 </wgt>
<wgt id='85'> +4.2916974e+02 </wgt>
<wgt id='86'> +5.1320967e+02 </wgt>
<wgt id='87'> +4.7116673e+02 </wgt>
<wgt id='88'> +4.7577569e+02 </wgt>
<wgt id='89'> +3.9150976e+02 </wgt>
<wgt id='90'> +4.3714282e+02 </wgt>
<wgt id='91'> +4.1016454e+02 </wgt>
<wgt id='92'> +4.4747923e+02 </wgt>
<wgt id='93'> +4.8839883e+02 </wgt>
<wgt id='94'> +4.3759246e+02 </wgt>
<wgt id='95'> +5.0378195e+02 </wgt>
<wgt id='96'> +5.1040243e+02 </wgt>
<wgt id='97'> +4.3025141e+02 </wgt>
<wgt id='98'> +5.2905767e+02 </wgt>
<wgt id='99'> +3.9280783e+02 </wgt>
<wgt id='100'> +3.5325918e+02 </wgt>
<wgt id='101'> +5.6790596e+02 </wgt>
<wgt id='102'> +5.4695184e+02 </wgt>
<wgt id='103'> +4.5237482e+02 </wgt>
<wgt id='104'> +5.2439987e+02 </wgt>
<wgt id='105'> +4.9273768e+02 </wgt>
<wgt id='106'> +4.6830694e+02 </wgt>
<wgt id='107'> +4.6968810e+02 </wgt>
<wgt id='108'> +4.4785375e+02 </wgt>
<wgt id='109'> +4.7405455e+02 </wgt>
<wgt id='110'> +4.3234320e+02 </wgt>
<wgt id='111'> +4.6431728e+02 </wgt>
<wgt id='112'> +5.0360149e+02 </wgt>
<wgt id='113'> +5.1600458e+02 </wgt>
<wgt id='114'> +5.0044996e+02 </wgt>
<wgt id='115'> +4.4517001e+02 </wgt>
<wgt id='116'> +5.3542773e+02 </wgt>
<wgt id='117'> +4.7548624e+02 </wgt>
<wgt id='118'> +4.9391694e+02 </wgt>
<wgt id='119'> +5.3302559e+02 </wgt>
<wgt id='120'> +4.8277687e+02 </wgt>
<wgt id='121'> +4.6531164e+02 </wgt>
<wgt id='122'> +4.6753588e+02 </wgt>
<wgt id='123'> +4.5503972e+02 </wgt>
<wgt id='124'> +5.4690917e+02 </wgt>
<wgt id='125'> +6.2444065e+02 </wgt>
<wgt id='126'> +4.6958857e+02 </wgt>
<wgt id='127'> +4.5539067e+02 </wgt>
<wgt id='128'> +4.6889836e+02 </wgt>
<wgt id='129'> +4.8830180e+02 </wgt>
<wgt id='130'> +4.8568850e+02 </wgt>
<wgt id='131'> +4.3669711e+02 </wgt>
<wgt id='132'> +5.2301238e+02 </wgt>
<wgt id='133'> +5.2946472e+02 </wgt>
<wgt id='134'> +5.0901292e+02 </wgt>
<wgt id='135'> +4.5732656e+02 </wgt>
<wgt id='136'> +5.7130781e+02 </wgt>
<wgt id='137'> +5.1703947e+02 </wgt>
<wgt id='138'> +4.9973642e+02 </wgt>
<wgt id='139'> +4.9701893e+02 </wgt>
<wgt id='140'> +4.7005027e+02 </wgt>
<wgt id='141'> +5.6360863e+02 </wgt>
<wgt id='142'> +3.1536249e+02 </wgt>
<wgt id='143'> +4.9020668e+02 </wgt>
<wgt id='144'> +4.3015680e+02 </wgt>
<wgt id='145'> +4.3952975e+02 </wgt>
</rwgt>
</event>
<event>
 8      1 +4.8159400e+02 2.35210000e+02 7.54677100e-03 1.12336100e-01
       21 -1    0    0  503  502 +0.0000000000e+00 +0.0000000000e+00 +2.3917379473e+02 2.3917379473e+02 0.0000000000e+00 0.0000e+00 1.0000e+00
       21 -1    0    0  501  503 -0.0000000000e+00 -0.0000000000e+00 -3.1532863501e+02 3.1532863501e+02 0.0000000000e+00 0.0000e+00 -1.0000e+00
        6  2    1    2  501    0 +1.5884841296e+02 +5.5966755033e+00 -1.8292676348e+02 2.9796971759e+02 1.7337707670e+02 0.0000e+00 0.0000e+00
       -6  2    1    2    0  502 -1.5884841296e+02 -5.5966755033e+00 +1.0677192321e+02 2.5653271215e+02 1.7071803578e+02 0.0000e+00 0.0000e+00
        5  1    3    3  501    0 +1.4863760626e+02 -6.5241876707e+00 -8.9523490745e+01 1.7370160740e+02 4.7000000000e+00 0.0000e+00 -1.0000e+00
       24  1    3    3    0    0 +1.0210806702e+01 +1.2120863174e+01 -9.3403272737e+01 1.2426811019e+02 8.0419002446e+01 0.0000e+00 -1.0000e+00
       -5  1    4    4    0  502 -1.1364092631e+02 -4.7863297563e+01 +2.4297899473e+01 1.2576817287e+02 4.7000000000e+00 0.0000e+00 1.0000e+00
      -24  1    4    4    0    0 -4.5207486643e+01 +4.2266622060e+01 +8.2474023734e+01 1.3076453928e+02 8.0419002446e+01 0.0000e+00 1.0000e+00
<mgrwt>
<rscale>  2 0.23472021E+03</rscale>
<asrwt>0</asrwt>
<pdfrwt beam="1">  1       21 0.36795968E-01 0.23521002E+03</pdfrwt>
<pdfrwt beam="2">  1       21 0.48512098E-01 0.23521002E+03</pdfrwt>
<totfact> 0.28265748E+04</totfact>
</mgrwt>
<rwgt>
<wgt id='1'> +6.2534182e+02 </wgt>
<wgt id='2'> +5.2510430e+02 </wgt>
<wgt id='3'> +4.8696468e+02 </wgt>
<wgt id='4'> +6.3274203e+02 </wgt>
<wgt id='5'> +4.5507567e+02 </wgt>
<wgt id='6'> +5.8466511e+02 </wgt>
<wgt id='7'> +4.8607132e+02 </wgt>
<wgt id='8'> +4.5072359e+02 </wgt>
<wgt id='9'> +5.9211424e+02 </wgt>
<wgt id='10'> +4.2131676e+02 </wgt>
<wgt id='11'> +5.4118065e+02 </wgt>
<wgt id='12'> +4.5024169e+02 </wgt>
<wgt id='13'> +4.1767036e+02 </wgt>
<wgt id='14'> +5.4804767e+02 </wgt>
<wgt id='15'> +3.9058091e+02 </wgt>
<wgt id='16'> +5.1509977e+02 </wgt>
<wgt id='17'> +4.4162214e+02 </wgt>
<wgt id='18'> +4.1142984e+02 </wgt>
<wgt id='19'> +5.2037766e+02 </wgt>
<wgt id='20'> +3.8592388e+02 </wgt>
<wgt id='21'> +4.0879471e+02 </wgt>
<wgt id='22'> +3.8081024e+02 </wgt>
<wgt id='23'> +4.8696468e+02 </wgt>
<wgt id='24'> +3.5729486e+02 </wgt>
<wgt id='25'> +4.4577545e+02 </wgt>
<wgt id='26'> +3.7866134e+02 </wgt>
<wgt id='27'> +3.5288401e+02 </wgt>
<wgt id='28'> +4.5072359e+02 </wgt>
<wgt id='29'> +3.3122953e+02 </wgt>
<wgt id='30'> +4.3546060e+02 </wgt>
<wgt id='31'> +3.7666235e+02 </wgt>
<wgt id='32'> +3.5219274e+02 </wgt>
<wgt id='33'> +4.3966001e+02 </wgt>
<wgt id='34'> +3.3141469e+02 </wgt>
<wgt id='35'> +4.0713513e+02 </wgt>
<wgt id='36'> +3.4866363e+02 </wgt>
<wgt id='37'> +3.2598170e+02 </wgt>
<wgt id='38'> +4.1142984e+02 </wgt>
<wgt id='39'> +3.0682933e+02 </wgt>
<wgt id='40'> +3.7685445e+02 </wgt>
<wgt id='41'> +3.2296269e+02 </wgt>
<wgt id='42'> +3.0207625e+02 </wgt>
<wgt id='43'> +3.8081024e+02 </wgt>
<wgt id='44'> +2.8444555e+02 </wgt>
<wgt id='45'> +4.8159400e+02 </wgt>
<wgt id='46'> +4.8646654e+02 </wgt>
<wgt id='47'> +5.0198076e+02 </wgt>
<wgt id='48'> +4.8625392e+02 </wgt>
<wgt id='49'> +4.8027748e+02 </wgt>
<wgt id='50'> +5.7653187e+02 </wgt>
<wgt id='51'> +4.7236053e+02 </wgt>
<wgt id='52'> +4.7982501e+02 </wgt>
<wgt id='53'> +4.8377945e+02 </wgt>
<wgt id='54'> +4.8440194e+02 </wgt>
<wgt id='55'> +4.2868503e+02 </wgt>
<wgt id='56'> +4.4274689e+02 </wgt>
<wgt id='57'> +4.6812578e+02 </wgt>
<wgt id='58'> +4.8014826e+02 </wgt>
<wgt id='59'> +4.7913986e+02 </wgt>
<wgt id='60'> +4.6612353e+02 </wgt>
<wgt id='61'> +4.6009512e+02 </wgt>
<wgt id='62'> +4.7630719e+02 </wgt>
<wgt id='63'> +4.8206406e+02 </wgt>
<wgt id='64'> +4.7262205e+02 </wgt>
<wgt id='65'> +5.6863060e+02 </wgt>
<wgt id='66'> +4.7125564e+02 </wgt>
<wgt id='67'> +4.8593965e+02 </wgt>
<wgt id='68'> +5.2186278e+02 </wgt>
<wgt id='69'> +4.7614060e+02 </wgt>
<wgt id='70'> +4.7259377e+02 </wgt>
<wgt id='71'> +4.9043243e+02 </wgt>
<wgt id='72'> +4.5863567e+02 </wgt>
<wgt id='73'> +4.7276730e+02 </wgt>
<wgt id='74'> +5.0135884e+02 </wgt>
<wgt id='75'> +4.9391098e+02 </wgt>
<wgt id='76'> +4.6589311e+02 </wgt>
<wgt id='77'> +4.6670018e+02 </wgt>
<wgt id='78'> +4.7661436e+02 </wgt>
<wgt id='79'> +4.6474980e+02 </wgt>
<wgt id='80'> +4.7556591e+02 </wgt>
<wgt id='81'> +4.7067729e+02 </wgt>
<wgt id='82'> +4.9207526e+02 </wgt>
<wgt id='83'> +4.9454938e+02 </wgt>
<wgt id='84'> +5.3241345e+02 </wgt>
<wgt id='85'> +5.0729103e+02 </wgt>
<wgt id='86'> +4.8169403e+02 </wgt>
<wgt id='87'> +4.8333299e+02 </wgt>
<wgt id='88'> +4.9182800e+02 </wgt>
<wgt id='89'> +4.9528651e+02 </wgt>
<wgt id='90'> +4.8853423e+02 </wgt>
<wgt id='91'> +5.1139682e+02 </wgt>
<wgt id='92'> +4.3352156e+02 </wgt>
<wgt id='93'> +4.7606400e+02 </wgt>
<wgt id='94'> +4.7538926e+02 </wgt>
<wgt id='95'> +4.5916122e+02 </wgt>
<wgt id='96'> +5.2771548e+02 </wgt>
<wgt id='97'> +4.8620647e+02 </wgt>
<wgt id='98'> +4.6029546e+02 </wgt>
<wgt id='99'> +4.6541097e+02 </wgt>
<wgt id='100'> +4.6950679e+02 </wgt>
<wgt id='101'> +5.1582231e+02 </wgt>
<wgt id='102'> +4.7595757e+02 </wgt>
<wgt id='103'> +5.2739683e+02 </wgt>
<wgt id='104'> +4.8369358e+02 </wgt>
<wgt id='105'> +4.9699662e+02 </wgt>
<wgt id='106'> +4.3455910e+02 </wgt>
<wgt id='107'> +4.6740141e+02 </wgt>
<wgt id='108'> +4.2351079e+02 </wgt>
<wgt id='109'> +4.4717579e+02 </wgt>
<wgt id='110'> +4.8062884e+02 </wgt>
<wgt id='111'> +4.6589826e+02 </wgt>
<wgt id='112'> +4.5501654e+02 </wgt>
<wgt id='113'> +4.3794794e+02 </wgt>
<wgt id='114'> +4.7216604e+02 </wgt>
<wgt id='115'> +4.7446351e+02 </wgt>
<wgt id='116'> +4.8860033e+02 </wgt>
<wgt id='117'> +4.8527515e+02 </wgt>
<wgt id='118'> +5.0034930e+02 </wgt>
<wgt id='119'> +4.6012909e+02 </wgt>
<wgt id='120'> +4.7478477e+02 </wgt>
<wgt id='121'> +4.6504575e+02 </wgt>
<wgt id='122'> +4.7419778e+02 </wgt>
<wgt id='123'> +4.8992197e+02 </wgt>
<wgt id='124'> +5.2269571e+02 </wgt>
<wgt id='125'> +5.2309542e+02 </wgt>
<wgt id='126'> +5.0352042e+02 </wgt>
<wgt id='127'> +4.9850352e+02 </wgt>
<wgt id='128'> +4.4294094e+02 </wgt>
<wgt id='129'> +5.4817238e+02 </wgt>
<wgt id='130'> +4.8736900e+02 </wgt>
<wgt id='131'> +5.1570414e+02 </wgt>
<wgt id='132'> +4.8088573e+02 </wgt>
<wgt id='133'> +4.8352532e+02 </wgt>
<wgt id='134'> +4.5368074e+02 </wgt>
<wgt id='135'> +4.9396291e+02 </wgt>
<wgt id='136'> +4.6495840e+02 </wgt>
<wgt id='137'> +4.5572218e+02 </wgt>
<wgt id='138'> +4.4431472e+02 </wgt>
<wgt id='139'> +4.9355264e+02 </wgt>
<wgt id='140'> +5.0916743e+02 </wgt>
<wgt id='141'> +4.8271293e+02 </wgt>
<wgt id='142'> +4.7841590e+02 </wgt>
<wgt id='143'> +4.7980937e+02 </wgt>
<wgt id='144'> +4.7726508e+02 </wgt>
<wgt id='145'> +4.8285186e+02 </wgt>
</rwgt>
</event>
<event>
 8      1 +4.8159400e+02 3.11417700e+02 7.54677100e-03 1.07969200e-01
       21 -1    0    0  503  502 +0.0000000000e+00 +0.0000000000e+00 +8.9085413311e+02 8.9085413311e+02 0.0000000000e+00 0.0000e+00 -1.0000e+00
       21 -1    0    0  501  503 -0.0000000000e+00 -0.0000000000e+00 -2.3460937834e+02 2.3460937834e+02 0.0000000000e+00 0.0000e+00 1.0000e+00
        6  2    1    2  501    0 +1.6909108436e+02 -1.9560809645e+02 -8.3924483014e+01 3.2252801457e+02 1.7357038666e+02 0.0000e+00 0.0000e+00
       -6  2    1    2    0  502 -1.6909108436e+02 +1.9560809645e+02 +7.4016923778e+02 8.0293549687e+02 1.7320678212e+02 0.0000e+00 0.0000e+00
        5  1    3    3  501    0 +2.2671721595e+01 +2.4821867536e+01 -1.7023943477e+01 3.7974158576e+01 4.7000000000e+00 0.0000e+00 -1.0000e+00
       24  1    3    3    0    0 +1.4641936277e+02 -2.2042996398e+02 -6.6900539538e+01 2.8455385599e+02 8.0419002446e+01 0.0000e+00 0.0000e+00
       -5  1    4    4    0  502 -1.0590557775e+01 +8.5669031330e+01 +1.1574181767e+02 1.4446314825e+02 4.7000000000e+00 0.0000e+00 1.0000e+00
      -24  1    4    4    0    0 -1.5850052659e+02 +1.0993906512e+02 +6.2442742011e+02 6.5847234863e+02 8.0419002446e+01 0.0000e+00 0.0000e+00
<mgrwt>
<rscale>  2 0.31136709E+03</rscale>
<asrwt>0</asrwt>
<pdfrwt beam="1">  1       21 0.13705448E+00 0.31141773E+03</pdfrwt>
<pdfrwt beam="2">  1       21 0.36093751E-01 0.31141773E+03</pdfrwt>
<totfact> 0.25692115E+03</totfact>
</mgrwt>
<rwgt>
<wgt id='1'> +6.5064972e+02 </wgt>
<wgt id='2'> +4.9250392e+02 </wgt>
<wgt id='3'> +4.8716287e+02 </wgt>
<wgt id='4'> +6.5871370e+02 </wgt>
<wgt id='5'> +4.1112737e+02 </wgt>
<wgt id='6'> +5.7634643e+02 </wgt>
<wgt id='7'> +4.3703800e+02 </wgt>
<wgt id='8'> +4.3237992e+02 </wgt>
<wgt id='9'> +5.8375822e+02 </wgt>
<wgt id='10'> +3.6599693e+02 </wgt>
<wgt id='11'> +5.1163702e+02 </wgt>
<wgt id='12'> +3.8979264e+02 </wgt>
<wgt id='13'> +3.8571129e+02 </wgt>
<wgt id='14'> +5.1811282e+02 </wgt>
<wgt id='15'> +3.2746667e+02 </wgt>
<wgt id='16'> +5.4368169e+02 </wgt>
<wgt id='17'> +4.1825456e+02 </wgt>
<wgt id='18'> +4.1392327e+02 </wgt>
<wgt id='19'> +5.4971536e+02 </wgt>
<wgt id='20'> +3.5195356e+02 </wgt>
<wgt id='21'> +3.7115062e+02 </wgt>
<wgt id='22'> +3.6737633e+02 </wgt>
<wgt id='23'> +4.8716287e+02 </wgt>
<wgt id='24'> +3.1331878e+02 </wgt>
<wgt id='25'> +4.2752294e+02 </wgt>
<wgt id='26'> +3.3102792e+02 </wgt>
<wgt id='27'> +3.2772382e+02 </wgt>
<wgt id='28'> +4.3237992e+02 </wgt>
<wgt id='29'> +2.8033420e+02 </wgt>
<wgt id='30'> +4.6218485e+02 </wgt>
<wgt id='31'> +3.5961140e+02 </wgt>
<wgt id='32'> +3.5603974e+02 </wgt>
<wgt id='33'> +4.6707167e+02 </wgt>
<wgt id='34'> +3.0469434e+02 </wgt>
<wgt id='35'> +4.0940399e+02 </wgt>
<wgt id='36'> +3.1911187e+02 </wgt>
<wgt id='37'> +3.1600198e+02 </wgt>
<wgt id='38'> +4.1392327e+02 </wgt>
<wgt id='39'> +2.7124732e+02 </wgt>
<wgt id='40'> +3.6343807e+02 </wgt>
<wgt id='41'> +2.8461475e+02 </wgt>
<wgt id='42'> +2.8189453e+02 </wgt>
<wgt id='43'> +3.6737633e+02 </wgt>
<wgt id='44'> +2.4269181e+02 </wgt>
<wgt id='45'> +4.8159400e+02 </wgt>
<wgt id='46'> +5.0241722e+02 </wgt>
<wgt id='47'> +5.0391585e+02 </wgt>
<wgt id='48'> +4.8945009e+02 </wgt>
<wgt id='49'> +4.6174624e+02 </wgt>
<wgt id='50'> +6.0515548e+02 </wgt>
<wgt id='51'> +4.6303058e+02 </wgt>
<wgt id='52'> +4.7175072e+02 </wgt>
<wgt id='53'> +4.7279791e+02 </wgt>
<wgt id='54'> +4.9888713e+02 </wgt>
<wgt id='55'> +4.7775307e+02 </wgt>
<wgt id='56'> +4.3534784e+02 </wgt>
<wgt id='57'> +4.9260640e+02 </wgt>
<wgt id='58'> +4.4894690e+02 </wgt>
<wgt id='59'> +5.1644362e+02 </wgt>
<wgt id='60'> +4.8527485e+02 </wgt>
<wgt id='61'> +4.1249235e+02 </wgt>
<wgt id='62'> +4.6381338e+02 </wgt>
<wgt id='63'> +4.9210971e+02 </wgt>
<wgt id='64'> +4.6860904e+02 </wgt>
<wgt id='65'> +5.1010018e+02 </wgt>
<wgt id='66'> +4.7982195e+02 </wgt>
<wgt id='67'> +4.8403290e+02 </wgt>
<wgt id='68'> +5.6067573e+02 </wgt>
<wgt id='69'> +5.0784507e+02 </wgt>
<wgt id='70'> +4.8610610e+02 </wgt>
<wgt id='71'> +4.7323025e+02 </wgt>
<wgt id='72'> +4.3823525e+02 </wgt>
<wgt id='73'> +4.4857305e+02 </wgt>
<wgt id='74'> +5.3426605e+02 </wgt>
<wgt id='75'> +5.0558300e+02 </wgt>
<wgt id='76'> +4.7940737e+02 </wgt>
<wgt id='77'> +4.7051733e+02 </wgt>
<wgt id='78'> +4.3545813e+02 </wgt>
<wgt id='79'> +4.9269810e+02 </wgt>
<wgt id='80'> +4.5026621e+02 </wgt>
<wgt id='81'> +4.7631196e+02 </wgt>
<wgt id='82'> +4.6580572e+02 </wgt>
<wgt id='83'> +4.8947336e+02 </wgt>
<wgt id='84'> +5.1008435e+02 </wgt>
<wgt id='85'> +4.7236028e+02 </wgt>
<wgt id='86'> +4.9724504e+02 </wgt>
<wgt id='87'> +4.8467952e+02 </wgt>
<wgt id='88'> +4.8321955e+02 </wgt>
<wgt id='89'> +4.6484244e+02 </wgt>
<wgt id='90'> +4.7924109e+02 </wgt>
<wgt id='91'> +4.6670584e+02 </wgt>
<wgt id='92'> +4.2392094e+02 </wgt>
<wgt id='93'> +4.8602749e+02 </wgt>
<wgt id='94'> +4.5095335e+02 </wgt>
<wgt id='95'> +4.8204448e+02 </wgt>
<wgt id='96'> +5.2573292e+02 </wgt>
<wgt id='97'> +4.5758230e+02 </wgt>
<wgt id='98'> +4.8793224e+02 </wgt>
<wgt id='99'> +4.3257513e+02 </wgt>
<wgt id='100'> +4.0472439e+02 </wgt>
<wgt id='101'> +5.6342616e+02 </wgt>
<wgt id='102'> +5.2849563e+02 </wgt>
<wgt id='103'> +5.0663176e+02 </wgt>
<wgt id='104'> +5.0356723e+02 </wgt>
<wgt id='105'> +4.8988617e+02 </wgt>
<wgt id='106'> +4.3203178e+02 </wgt>
<wgt id='107'> +4.4481784e+02 </wgt>
<wgt id='108'> +4.1832983e+02 </wgt>
<wgt id='109'> +4.5194290e+02 </wgt>
<wgt id='110'> +4.6094320e+02 </wgt>
<wgt id='111'> +4.6366961e+02 </wgt>
<wgt id='112'> +4.6472870e+02 </wgt>
<wgt id='113'> +4.5621671e+02 </wgt>
<wgt id='114'> +4.6884095e+02 </wgt>
<wgt id='115'> +4.4114487e+02 </wgt>
<wgt id='116'> +5.2439761e+02 </wgt>
<wgt id='117'> +4.7045216e+02 </wgt>
<wgt id='118'> +5.1559369e+02 </wgt>
<wgt id='119'> +4.8383844e+02 </wgt>
<wgt id='120'> +4.7143185e+02 </wgt>
<wgt id='121'> +4.6891784e+02 </wgt>
<wgt id='122'> +4.7258476e+02 </wgt>
<wgt id='123'> +4.8174552e+02 </wgt>
<wgt id='124'> +5.5535526e+02 </wgt>
<wgt id='125'> +5.7711542e+02 </wgt>
<wgt id='126'> +4.9426579e+02 </wgt>
<wgt id='127'> +4.8737323e+02 </wgt>
<wgt id='128'> +4.3946942e+02 </wgt>
<wgt id='129'> +5.2971114e+02 </wgt>
<wgt id='130'> +4.7563793e+02 </wgt>
<wgt id='131'> +4.8104875e+02 </wgt>
<wgt id='132'> +5.2113590e+02 </wgt>
<wgt id='133'> +5.1590734e+02 </wgt>
<wgt id='134'> +4.8121438e+02 </wgt>
<wgt id='135'> +4.7807054e+02 </wgt>
<wgt id='136'> +5.2845926e+02 </wgt>
<wgt id='137'> +4.7938943e+02 </wgt>
<wgt id='138'> +4.7989884e+02 </wgt>
<wgt id='139'> +5.0076763e+02 </wgt>
<wgt id='140'> +4.8181524e+02 </wgt>
<wgt id='141'> +5.1292504e+02 </wgt>
<wgt id='142'> +4.0377240e+02 </wgt>
<wgt id='143'> +4.9566791e+02 </wgt>
<wgt id='144'> +4.5116918e+02 </wgt>
<wgt id='145'> +4.6539930e+02 </wgt>
</rwgt>
</event>
<event>
 8      1 +4.8159400e+02 1.90131800e+02 7.54677100e-03 1.15834300e-01
        2 -1    0    0  502    0 +0.0000000000e+00 +0.0000000000e+00 +1.7686814794e+03 1.7686814794e+03 0.0000000000e+00 0.0000e+00 -1.0000e+00
       -2 -1    0    0    0  501 -0.0000000000e+00 -0.0000000000e+00 -2.4328412246e+01 2.4328412246e+01 0.0000000000e+00 0.0000e+00 1.0000e+00
        6  2    1    2  502    0 -7.8368361038e+01 -1.1770249750e+01 +5.1541548614e+02 5.4951831460e+02 1.7331219212e+02 0.0000e+00 0.0000e+00
       -6  2    1    2    0  501 +7.8368361038e+01 +1.1770249750e+01 +1.2289375810e+03 1.2434915770e+03 1.7234728126e+02 0.0000e+00 0.0000e+00
        5  1    3    3  502    0 +2.5766730576e+01 -4.4035546181e+01 +9.6729761437e+01 1.0946136524e+02 4.7000000000e+00 0.0000e+00 -1.0000e+00
       24  1    3    3    0    0 -1.0413509161e+02 +3.2265296431e+01 +4.1868572471e+02 4.4005694937e+02 8.0419002446e+01 0.0000e+00 0.0000e+00
       -5  1    4    4    0  501 +5.3352305655e+01 +6.4534823648e+01 +7.2606297101e+02 7.3089037471e+02 4.7000000000e+00 0.0000e+00 1.0000e+00
      -24  1    4    4    0    0 +2.5016055383e+01 -5.2764573898e+01 +5.0287460996e+02 5.1260120229e+02 8.0419002446e+01 0.0000e+00 1.0000e+00
<mgrwt>
<rscale>  2 0.19013181E+03</rscale>
<asrwt>0</asrwt>
<pdfrwt beam="1">  1        2 0.27210474E+00 0.19013181E+03</pdfrwt>
<pdfrwt beam="2">  1       -2 0.37428340E-02 0.19013181E+03</pdfrwt>
<totfact> 0.29867688E+03</totfact>
</mgrwt>
<rwgt>
<wgt id='1'> +5.8901374e+02 </wgt>
<wgt id='2'> +5.1189484e+02 </wgt>
<wgt id='3'> +4.8513880e+02 </wgt>
<wgt id='4'> +5.9392856e+02 </wgt>
<wgt id='5'> +4.7076127e+02 </wgt>
<wgt id='6'> +5.9134544e+02 </wgt>
<wgt id='7'> +5.1160827e+02 </wgt>
<wgt id='8'> +4.8404468e+02 </wgt>
<wgt id='9'> +5.9644740e+02 </wgt>
<wgt id='10'> +4.6925306e+02 </wgt>
<wgt id='11'> +5.8987474e+02 </wgt>
<wgt id='12'> +5.0850140e+02 </wgt>
<wgt id='13'> +4.8048844e+02 </wgt>
<wgt id='14'> +5.9510225e+02 </wgt>
<wgt id='15'> +4.6547424e+02 </wgt>
<wgt id='16'> +4.7969505e+02 </wgt>
<wgt id='17'> +4.2731449e+02 </wgt>
<wgt id='18'> +4.0795941e+02 </wgt>
<wgt id='19'> +4.8309003e+02 </wgt>
<wgt id='20'> +3.9702909e+02 </wgt>
<wgt id='21'> +4.2707528e+02 </wgt>
<wgt id='22'> +4.0703934e+02 </wgt>
<wgt id='23'> +4.8513880e+02 </wgt>
<wgt id='24'> +3.9575709e+02 </wgt>
<wgt id='25'> +4.8039625e+02 </wgt>
<wgt id='26'> +4.2448175e+02 </wgt>
<wgt id='27'> +4.0404885e+02 </wgt>
<wgt id='28'> +4.8404468e+02 </wgt>
<wgt id='29'> +3.9257013e+02 </wgt>
<wgt id='30'> +4.0370634e+02 </wgt>
<wgt id='31'> +3.6311416e+02 </wgt>
<wgt id='32'> +3.4792473e+02 </wgt>
<wgt id='33'> +4.0623656e+02 </wgt>
<wgt id='34'> +3.3930522e+02 </wgt>
<wgt id='35'> +4.0530448e+02 </wgt>
<wgt id='36'> +3.6291088e+02 </wgt>
<wgt id='37'> +3.4714006e+02 </wgt>
<wgt id='38'> +4.0795941e+02 </wgt>
<wgt id='39'> +3.3821816e+02 </wgt>
<wgt id='40'> +4.0429647e+02 </wgt>
<wgt id='41'> +3.6070701e+02 </wgt>
<wgt id='42'> +3.4458965e+02 </wgt>
<wgt id='43'> +4.0703934e+02 </wgt>
<wgt id='44'> +3.3549455e+02 </wgt>
<wgt id='45'> +4.8159400e+02 </wgt>
<wgt id='46'> +4.8735997e+02 </wgt>
<wgt id='47'> +4.6468321e+02 </wgt>
<wgt id='48'> +4.6876402e+02 </wgt>
<wgt id='49'> +4.7330187e+02 </wgt>
<wgt id='50'> +4.3045367e+02 </wgt>
<wgt id='51'> +4.7212490e+02 </wgt>
<wgt id='52'> +4.7327692e+02 </wgt>
<wgt id='53'> +4.9813329e+02 </wgt>
<wgt id='54'> +4.7422390e+02 </wgt>
<wgt id='55'> +4.5847408e+02 </wgt>
<wgt id='56'> +5.1053389e+02 </wgt>
<wgt id='57'> +4.6344007e+02 </wgt>
<wgt id='58'> +5.1414408e+02 </wgt>
<wgt id='59'> +4.3908549e+02 </wgt>
<wgt id='60'> +4.9542524e+02 </wgt>
<wgt id='61'> +5.2804419e+02 </wgt>
<wgt id='62'> +4.9342507e+02 </wgt>
<wgt id='63'> +4.8505624e+02 </wgt>
<wgt id='64'> +4.7664822e+02 </wgt>
<wgt id='65'> +4.7432215e+02 </wgt>
<wgt id='66'> +4.8470887e+02 </wgt>
<wgt id='67'> +4.9117865e+02 </wgt>
<wgt id='68'> +4.1514622e+02 </wgt>
<wgt id='69'> +4.5676908e+02 </wgt>
<wgt id='70'> +4.7681852e+02 </wgt>
<wgt id='71'> +4.9043957e+02 </wgt>
<wgt id='72'> +5.1183665e+02 </wgt>
<wgt id='73'> +5.0404153e+02 </wgt>
<wgt id='74'> +4.2929157e+02 </wgt>
<wgt id='75'> +4.5789257e+02 </wgt>
<wgt id='76'> +5.0606654e+02 </wgt>
<wgt id='77'> +4.9292698e+02 </wgt>
<wgt id='78'> +5.1350087e+02 </wgt>
<wgt id='79'> +4.8574137e+02 </wgt>
<wgt id='80'> +5.2899393e+02 </wgt>
<wgt id='81'> +4.9391575e+02 </wgt>
<wgt id='82'> +4.8128816e+02 </wgt>
<wgt id='83'> +4.7502104e+02 </wgt>
<wgt id='84'> +4.8465454e+02 </wgt>
<wgt id='85'> +4.8037918e+02 </wgt>
<wgt id='86'> +4.7597941e+02 </wgt>
<wgt id='87'> +4.8701764e+02 </wgt>
<wgt id='88'> +4.8368411e+02 </wgt>
<wgt id='89'> +4.9515658e+02 </wgt>
<wgt id='90'> +5.1282920e+02 </wgt>
<wgt id='91'> +4.5000761e+02 </wgt>
<wgt id='92'> +5.2130429e+02 </wgt>
<wgt id='93'> +4.6963018e+02 </wgt>
<wgt id='94'> +4.9083068e+02 </wgt>
<wgt id='95'> +4.7763006e+02 </wgt>
<wgt id='96'> +4.6466195e+02 </wgt>
<wgt id='97'> +5.0580705e+02 </wgt>
<wgt id='98'> +4.9072195e+02 </wgt>
<wgt id='99'> +5.1981592e+02 </wgt>
<wgt id='100'> +5.0957357e+02 </wgt>
<wgt id='101'> +4.1542164e+02 </wgt>
<wgt id='102'> +4.5068585e+02 </wgt>
<wgt id='103'> +4.6375056e+02 </wgt>
<wgt id='104'> +4.6217436e+02 </wgt>
<wgt id='105'> +4.8430938e+02 </wgt>
<wgt id='106'> +5.2709795e+02 </wgt>
<wgt id='107'> +4.7970141e+02 </wgt>
<wgt id='108'> +5.3585811e+02 </wgt>
<wgt id='109'> +4.9274009e+02 </wgt>
<wgt id='110'> +5.0573243e+02 </wgt>
<wgt id='111'> +5.0882003e+02 </wgt>
<wgt id='112'> +4.9596511e+02 </wgt>
<wgt id='113'> +4.8819969e+02 </wgt>
<wgt id='114'> +4.8076738e+02 </wgt>
<wgt id='115'> +5.0229404e+02 </wgt>
<wgt id='116'> +4.3950109e+02 </wgt>
<wgt id='117'> +4.7765961e+02 </wgt>
<wgt id='118'> +4.5821984e+02 </wgt>
<wgt id='119'> +4.8641865e+02 </wgt>
<wgt id='120'> +4.8954102e+02 </wgt>
<wgt id='121'> +4.8122935e+02 </wgt>
<wgt id='122'> +4.9953191e+02 </wgt>
<wgt id='123'> +5.1436707e+02 </wgt>
<wgt id='124'> +4.3839559e+02 </wgt>
<wgt id='125'> +4.0656261e+02 </wgt>
<wgt id='126'> +4.8375153e+02 </wgt>
<wgt id='127'> +4.7310434e+02 </wgt>
<wgt id='128'> +4.8112698e+02 </wgt>
<wgt id='129'> +4.4704183e+02 </wgt>
<wgt id='130'> +4.7407089e+02 </wgt>
<wgt id='131'> +4.8000106e+02 </wgt>
<wgt id='132'> +4.5090599e+02 </wgt>
<wgt id='133'> +4.6797070e+02 </wgt>
<wgt id='134'> +4.7380126e+02 </wgt>
<wgt id='135'> +4.6444090e+02 </wgt>
<wgt id='136'> +4.6370810e+02 </wgt>
<wgt id='137'> +4.9777562e+02 </wgt>
<wgt id='138'> +4.9137892e+02 </wgt>
<wgt id='139'> +4.7311683e+02 </wgt>
<wgt id='140'> +4.7916995e+02 </wgt>
<wgt id='141'> +4.5506589e+02 </wgt>
<wgt id='142'> +5.3179754e+02 </wgt>
<wgt id='143'> +4.9490759e+02 </wgt>
<wgt id='144'> +5.1438313e+02 </wgt>
<wgt id='145'> +5.0599546e+02 </wgt>
</rwgt>
</event>
<event>
 8      1 +4.8159400e+02 1.91978500e+02 7.54677100e-03 1.15668900e-01
        2 -1    0    0  502    0 +0.0000000000e+00 +0.0000000000e+00 +7.1462378974e+01 7.1462378974e+01 0.0000000000e+00 0.0000e+00 -1.0000e+00
       -2 -1    0    0    0  501 -0.0000000000e+00 -0.0000000000e+00 -5.4150920722e+02 5.4150920722e+02 0.0000000000e+00 0.0000e+00 1.0000e+00
        6  2    1    2  502    0 -4.8420261093e+01 +6.6061189835e+01 -1.6770966213e+02 2.5462402520e+02 1.7320006048e+02 0.0000e+00 0.0000e+00
       -6  2    1    2    0  501 +4.8420261093e+01 -6.6061189835e+01 -3.0233716612e+02 3.5834756100e+02 1.7405921398e+02 0.0000e+00 0.0000e+00
        5  1    3    3  502    0 -5.7601475840e+01 +4.8311235895e+01 -1.5289804351e+02 1.7044590708e+02 4.7000000000e+00 0.0000e+00 -1.0000e+00
       24  1    3    3    0    0 +9.1812147468e+00 +1.7749953940e+01 -1.4811618626e+01 8.4178118117e+01 8.0419002446e+01 0.0000e+00 -1.0000e+00
       -5  1    4    4    0  501 -3.7047528041e+00 +2.2763211356e+01 +5.2860192796e+00 2.4123038457e+01 4.7000000000e+00 0.0000e+00 1.0000e+00
      -24  1    4    4    0    0 +5.2125013897e+01 -8.8824401191e+01 -3.0762318540e+02 3.3422452254e+02 8.0419002446e+01 0.0000e+00 1.0000e+00
<mgrwt>
<rscale>  2 0.19197848E+03</rscale>
<asrwt>0</asrwt>
<pdfrwt beam="1">  1        2 0.10994212E-01 0.19197848E+03</pdfrwt>
<pdfrwt beam="2">  1       -2 0.83309110E-01 0.19197848E+03</pdfrwt>
<totfact> 0.73472111E+02</totfact>
</mgrwt>
<rwgt>
<wgt id='1'> +5.7789147e+02 </wgt>
<wgt id='2'> +5.2558797e+02 </wgt>
<wgt id='3'> +5.0688455e+02 </wgt>
<wgt id='4'> +6.1193988e+02 </wgt>
<wgt id='5'> +4.7880341e+02 </wgt>
<wgt id='6'> +5.9107325e+02 </wgt>
<wgt id='7'> +5.3524718e+02 </wgt>
<wgt id='8'> +5.1539446e+02 </wgt>
<wgt id='9'> +6.2768065e+02 </wgt>
<wgt id='10'> +4.8562674e+02 </wgt>
<wgt id='11'> +5.9964954e+02 </wgt>
<wgt id='12'> +5.4115253e+02 </wgt>
<wgt id='13'> +5.2044815e+02 </wgt>
<wgt id='14'> +6.3821856e+02 </wgt>
<wgt id='15'> +4.8945562e+02 </wgt>
<wgt id='16'> +4.7085377e+02 </wgt>
<wgt id='17'> +4.3626012e+02 </wgt>
<wgt id='18'> +4.2361503e+02 </wgt>
<wgt id='19'> +4.9417307e+02 </wgt>
<wgt id='20'> +4.0332958e+02 </wgt>
<wgt id='21'> +4.4427768e+02 </wgt>
<wgt id='22'> +4.3072696e+02 </wgt>
<wgt id='23'> +5.0688455e+02 </wgt>
<wgt id='24'> +4.0907735e+02 </wgt>
<wgt id='25'> +4.8858178e+02 </wgt>
<wgt id='26'> +4.4917936e+02 </wgt>
<wgt id='27'> +4.3495044e+02 </wgt>
<wgt id='28'> +5.1539446e+02 </wgt>
<wgt id='29'> +4.1230269e+02 </wgt>
<wgt id='30'> +3.9637390e+02 </wgt>
<wgt id='31'> +3.6990969e+02 </wgt>
<wgt id='32'> +3.6013846e+02 </wgt>
<wgt id='33'> +4.1299175e+02 </wgt>
<wgt id='34'> +3.4436030e+02 </wgt>
<wgt id='35'> +4.0541524e+02 </wgt>
<wgt id='36'> +3.7670786e+02 </wgt>
<wgt id='37'> +3.6618470e+02 </wgt>
<wgt id='38'> +4.2361503e+02 </wgt>
<wgt id='39'> +3.4926771e+02 </wgt>
<wgt id='40'> +4.1129769e+02 </wgt>
<wgt id='41'> +3.8086406e+02 </wgt>
<wgt id='42'> +3.6977531e+02 </wgt>
<wgt id='43'> +4.3072696e+02 </wgt>
<wgt id='44'> +3.5202148e+02 </wgt>
<wgt id='45'> +4.8159400e+02 </wgt>
<wgt id='46'> +4.9852764e+02 </wgt>
<wgt id='47'> +4.7358145e+02 </wgt>
<wgt id='48'> +4.5658224e+02 </wgt>
<wgt id='49'> +5.1170068e+02 </wgt>
<wgt id='50'> +4.2646540e+02 </wgt>
<wgt id='51'> +4.5540881e+02 </wgt>
<wgt id='52'> +5.0938905e+02 </wgt>
<wgt id='53'> +5.1147805e+02 </wgt>
<wgt id='54'> +4.6685627e+02 </wgt>
<wgt id='55'> +4.6779256e+02 </wgt>
<wgt id='56'> +4.8819189e+02 </wgt>
<wgt id='57'> +4.1484462e+02 </wgt>
<wgt id='58'> +5.4611836e+02 </wgt>
<wgt id='59'> +4.9835269e+02 </wgt>
<wgt id='60'> +4.8249690e+02 </wgt>
<wgt id='61'> +4.3196902e+02 </wgt>
<wgt id='62'> +4.8862720e+02 </wgt>
<wgt id='63'> +5.1297827e+02 </wgt>
<wgt id='64'> +4.5316771e+02 </wgt>
<wgt id='65'> +4.4160819e+02 </wgt>
<wgt id='66'> +4.6469819e+02 </wgt>
<wgt id='67'> +5.0838852e+02 </wgt>
<wgt id='68'> +4.3121484e+02 </wgt>
<wgt id='69'> +4.4901771e+02 </wgt>
<wgt id='70'> +5.3801320e+02 </wgt>
<wgt id='71'> +4.5640334e+02 </wgt>
<wgt id='72'> +4.3656773e+02 </wgt>
<wgt id='73'> +5.1325189e+02 </wgt>
<wgt id='74'> +4.5250938e+02 </wgt>
<wgt id='75'> +4.4889260e+02 </wgt>
<wgt id='76'> +4.7406790e+02 </wgt>
<wgt id='77'> +4.9693980e+02 </wgt>
<wgt id='78'> +4.5905077e+02 </wgt>
<wgt id='79'> +4.8860510e+02 </wgt>
<wgt id='80'> +4.5982918e+02 </wgt>
<wgt id='81'> +5.0783795e+02 </wgt>
<wgt id='82'> +4.9053291e+02 </wgt>
<wgt id='83'> +4.6052018e+02 </wgt>
<wgt id='84'> +5.0969643e+02 </wgt>
<wgt id='85'> +4.9468051e+02 </wgt>
<wgt id='86'> +5.5719770e+02 </wgt>
<wgt id='87'> +4.9763842e+02 </wgt>
<wgt id='88'> +4.4466248e+02 </wgt>
<wgt id='89'> +6.2002896e+02 </wgt>
<wgt id='90'> +5.4702294e+02 </wgt>
<wgt id='91'> +4.3760584e+02 </wgt>
<wgt id='92'> +4.8352167e+02 </wgt>
<wgt id='93'> +4.7446356e+02 </wgt>
<wgt id='94'> +5.1599145e+02 </wgt>
<wgt id='95'> +4.5886982e+02 </wgt>
<wgt id='96'> +4.7956982e+02 </wgt>
<wgt id='97'> +4.8490547e+02 </wgt>
<wgt id='98'> +4.9343619e+02 </wgt>
<wgt id='99'> +5.1557119e+02 </wgt>
<wgt id='100'> +4.1923002e+02 </wgt>
<wgt id='101'> +4.8131263e+02 </wgt>
<wgt id='102'> +4.9113761e+02 </wgt>
<wgt id='103'> +5.2813534e+02 </wgt>
<wgt id='104'> +4.6576433e+02 </wgt>
<wgt id='105'> +4.7530407e+02 </wgt>
<wgt id='106'> +4.8090997e+02 </wgt>
<wgt id='107'> +4.9336714e+02 </wgt>
<wgt id='108'> +4.5177473e+02 </wgt>
<wgt id='109'> +4.8548536e+02 </wgt>
<wgt id='110'> +4.9908746e+02 </wgt>
<wgt id='111'> +4.6266313e+02 </wgt>
<wgt id='112'> +4.2093138e+02 </wgt>
<wgt id='113'> +4.7947898e+02 </wgt>
<wgt id='114'> +4.7777096e+02 </wgt>
<wgt id='115'> +4.2548432e+02 </wgt>
<wgt id='116'> +4.8565508e+02 </wgt>
<wgt id='117'> +4.4876959e+02 </wgt>
<wgt id='118'> +4.8070980e+02 </wgt>
<wgt id='119'> +5.2136079e+02 </wgt>
<wgt id='120'> +4.7615051e+02 </wgt>
<wgt id='121'> +4.9244677e+02 </wgt>
<wgt id='122'> +4.8430200e+02 </wgt>
<wgt id='123'> +4.9648451e+02 </wgt>
<wgt id='124'> +4.6227194e+02 </wgt>
<wgt id='125'> +4.3805785e+02 </wgt>
<wgt id='126'> +5.0132040e+02 </wgt>
<wgt id='127'> +5.1749436e+02 </wgt>
<wgt id='128'> +4.8106554e+02 </wgt>
<wgt id='129'> +4.9646383e+02 </wgt>
<wgt id='130'> +4.1294413e+02 </wgt>
<wgt id='131'> +5.1225614e+02 </wgt>
<wgt id='132'> +4.7435812e+02 </wgt>
<wgt id='133'> +5.9910100e+02 </wgt>
<wgt id='134'> +4.3038188e+02 </wgt>
<wgt id='135'> +4.4502347e+02 </wgt>
<wgt id='136'> +5.0986778e+02 </wgt>
<wgt id='137'> +4.9004375e+02 </wgt>
<wgt id='138'> +4.6472172e+02 </wgt>
<wgt id='139'> +5.7552261e+02 </wgt>
<wgt id='140'> +4.3196912e+02 </wgt>
<wgt id='141'> +4.7963814e+02 </wgt>
<wgt id='142'> +4.3337047e+02 </wgt>
<wgt id='143'> +4.9340735e+02 </wgt>
<wgt id='144'> +4.8353892e+02 </wgt>
<wgt id='145'> +5.1534423e+02 </wgt>
</rwgt>
</event>
<event>
 8      1 +4.8159400e+02 4.33770000e+02 7.54677100e-03 1.03304900e-01
       21 -1    0    0  501  502 +0.0000000000e+00 +0.0000000000e+00 +8.2760516771e+02 8.2760516771e+02 0.0000000000e+00 0.0000e+00 -1.0000e+00
       21 -1    0    0  502  503 -0.0000000000e+00 -0.0000000000e+00 -3.1552996742e+02 3.1552996742e+02 0.0000000000e+00 0.0000e+00 1.0000e+00
       -6  2    1    2    0  503 -2.3913731608e+02 +3.1095246945e+02 +5.6342050124e+02 7.1105491625e+02 1.8514410200e+02 0.0000e+00 0.0000e+00
        6  2    1    2  501    0 +2.3913731608e+02 -3.1095246945e+02 -5.1345300948e+01 4.3208021889e+02 1.7372069948e+02 0.0000e+00 0.0000e+00
        5  1    4    4  501    0 +6.9015617305e+01 -1.6668971525e+02 -7.1490884207e+01 1.9411762703e+02 4.7000000000e+00 0.0000e+00 -1.0000e+00
       24  1    4    4    0    0 +1.7012169877e+02 -1.4426275420e+02 +2.0145583258e+01 2.3796259185e+02 8.0419002446e+01 0.0000e+00 1.0000e+00
       -5  1    3    3    0  503 -1.7093743329e+02 +1.6105871612e+02 +2.2023772439e+02 3.2200351144e+02 4.7000000000e+00 0.0000e+00 1.0000e+00
      -24  1    3    3    0    0 -6.8199882787e+01 +1.4989375333e+02 +3.4318277685e+02 3.8905140480e+02 8.0419002446e+01 0.0000e+00 -1.0000e+00
<mgrwt>
<rscale>  2 0.43257726E+03</rscale>
<asrwt>0</asrwt>
<pdfrwt beam="1">  1       21 0.12732387E+00 0.43377002E+03</pdfrwt>
<pdfrwt beam="2">  1       21 0.48543072E-01 0.43377002E+03</pdfrwt>
<totfact> 0.15897595E+03</totfact>
</mgrwt>
<rwgt>
<wgt id='1'> +6.4799930e+02 </wgt>
<wgt id='2'> +4.9250812e+02 </wgt>
<wgt id='3'> +4.8878987e+02 </wgt>
<wgt id='4'> +6.5835783e+02 </wgt>
<wgt id='5'> +4.4995431e+02 </wgt>
<wgt id='6'> +5.7056873e+02 </wgt>
<wgt id='7'> +4.3596898e+02 </wgt>
<wgt id='8'> +4.3274180e+02 </wgt>
<wgt id='9'> +5.7947874e+02 </wgt>
<wgt id='10'> +3.9900777e+02 </wgt>
<wgt id='11'> +5.0529599e+02 </wgt>
<wgt id='12'> +3.8806366e+02 </wgt>
<wgt id='13'> +3.8524616e+02 </wgt>
<wgt id='14'> +5.1303165e+02 </wgt>
<wgt id='15'> +3.5577098e+02 </wgt>
<wgt id='16'> +5.4695001e+02 </wgt>
<wgt id='17'> +4.2081953e+02 </wgt>
<wgt id='18'> +4.1777888e+02 </wgt>
<wgt id='19'> +5.5532432e+02 </wgt>
<wgt id='20'> +3.8593324e+02 </wgt>
<wgt id='21'> +3.7251012e+02 </wgt>
<wgt id='22'> +3.6987343e+02 </wgt>
<wgt id='23'> +4.8878987e+02 </wgt>
<wgt id='24'> +3.4223555e+02 </wgt>
<wgt id='25'> +4.2649992e+02 </wgt>
<wgt id='26'> +3.3157782e+02 </wgt>
<wgt id='27'> +3.2927792e+02 </wgt>
<wgt id='28'> +4.3274180e+02 </wgt>
<wgt id='29'> +3.0515064e+02 </wgt>
<wgt id='30'> +4.6777556e+02 </wgt>
<wgt id='31'> +3.6371461e+02 </wgt>
<wgt id='32'> +3.6118751e+02 </wgt>
<wgt id='33'> +4.7464726e+02 </wgt>
<wgt id='34'> +3.3466254e+02 </wgt>
<wgt id='35'> +4.1188024e+02 </wgt>
<wgt id='36'> +3.2196076e+02 </wgt>
<wgt id='37'> +3.1977123e+02 </wgt>
<wgt id='38'> +4.1777888e+02 </wgt>
<wgt id='39'> +2.9677003e+02 </wgt>
<wgt id='40'> +3.6476137e+02 </wgt>
<wgt id='41'> +2.8658294e+02 </wgt>
<wgt id='42'> +2.8467469e+02 </wgt>
<wgt id='43'> +3.6987343e+02 </wgt>
<wgt id='44'> +2.6461180e+02 </wgt>
<wgt id='45'> +4.8159400e+02 </wgt>
<wgt id='46'> +5.0566881e+02 </wgt>
<wgt id='47'> +5.0580832e+02 </wgt>
<wgt id='48'> +4.9198321e+02 </wgt>
<wgt id='49'> +4.6305404e+02 </wgt>
<wgt id='50'> +6.1199062e+02 </wgt>
<wgt id='51'> +4.6457175e+02 </wgt>
<wgt id='52'> +4.7367478e+02 </wgt>
<wgt id='53'> +4.6973847e+02 </wgt>
<wgt id='54'> +4.9732016e+02 </wgt>
<wgt id='55'> +4.7558960e+02 </wgt>
<wgt id='56'> +4.3195803e+02 </wgt>
<wgt id='57'> +4.9150725e+02 </wgt>
<wgt id='58'> +4.4759877e+02 </wgt>
<wgt id='59'> +5.1958363e+02 </wgt>
<wgt id='60'> +4.8965313e+02 </wgt>
<wgt id='61'> +4.0313003e+02 </wgt>
<wgt id='62'> +4.6610108e+02 </wgt>
<wgt id='63'> +4.9060158e+02 </wgt>
<wgt id='64'> +4.6458419e+02 </wgt>
<wgt id='65'> +5.1084927e+02 </wgt>
<wgt id='66'> +4.8088572e+02 </wgt>
<wgt id='67'> +4.8398215e+02 </wgt>
<wgt id='68'> +5.6197518e+02 </wgt>
<wgt id='69'> +5.1136981e+02 </wgt>
<wgt id='70'> +4.8451988e+02 </wgt>
<wgt id='71'> +4.7495522e+02 </wgt>
<wgt id='72'> +4.3385724e+02 </wgt>
<wgt id='73'> +4.4878433e+02 </wgt>
<wgt id='74'> +5.3588900e+02 </wgt>
<wgt id='75'> +5.0488715e+02 </wgt>
<wgt id='76'> +4.7811154e+02 </wgt>
<wgt id='77'> +4.7400749e+02 </wgt>
<wgt id='78'> +4.3410930e+02 </wgt>
<wgt id='79'> +4.9432792e+02 </wgt>
<wgt id='80'> +4.5126838e+02 </wgt>
<wgt id='81'> +4.7439034e+02 </wgt>
<wgt id='82'> +4.6386999e+02 </wgt>
<wgt id='83'> +4.9165117e+02 </wgt>
<wgt id='84'> +5.1235635e+02 </wgt>
<wgt id='85'> +4.7374156e+02 </wgt>
<wgt id='86'> +4.9878337e+02 </wgt>
<wgt id='87'> +4.8616931e+02 </wgt>
<wgt id='88'> +4.8514180e+02 </wgt>
<wgt id='89'> +4.6920039e+02 </wgt>
<wgt id='90'> +4.8230787e+02 </wgt>
<wgt id='91'> +4.6857493e+02 </wgt>
<wgt id='92'> +4.1923019e+02 </wgt>
<wgt id='93'> +4.8806313e+02 </wgt>
<wgt id='94'> +4.5003039e+02 </wgt>
<wgt id='95'> +4.7936382e+02 </wgt>
<wgt id='96'> +5.2912381e+02 </wgt>
<wgt id='97'> +4.5728146e+02 </wgt>
<wgt id='98'> +4.8825142e+02 </wgt>
<wgt id='99'> +4.3412781e+02 </wgt>
<wgt id='100'> +4.0420328e+02 </wgt>
<wgt id='101'> +5.6898628e+02 </wgt>
<wgt id='102'> +5.3361220e+02 </wgt>
<wgt id='103'> +5.1024228e+02 </wgt>
<wgt id='104'> +5.0461953e+02 </wgt>
<wgt id='105'> +4.8695860e+02 </wgt>
<wgt id='106'> +4.2688057e+02 </wgt>
<wgt id='107'> +4.3961397e+02 </wgt>
<wgt id='108'> +4.1386527e+02 </wgt>
<wgt id='109'> +4.4834582e+02 </wgt>
<wgt id='110'> +4.6103443e+02 </wgt>
<wgt id='111'> +4.6202117e+02 </wgt>
<wgt id='112'> +4.5939229e+02 </wgt>
<wgt id='113'> +4.5259749e+02 </wgt>
<wgt id='114'> +4.6104592e+02 </wgt>
<wgt id='115'> +4.3640744e+02 </wgt>
<wgt id='116'> +5.2865724e+02 </wgt>
<wgt id='117'> +4.6825992e+02 </wgt>
<wgt id='118'> +5.2001455e+02 </wgt>
<wgt id='119'> +4.7967761e+02 </wgt>
<wgt id='120'> +4.6596025e+02 </wgt>
<wgt id='121'> +4.6700838e+02 </wgt>
<wgt id='122'> +4.7224420e+02 </wgt>
<wgt id='123'> +4.8380942e+02 </wgt>
<wgt id='124'> +5.5954477e+02 </wgt>
<wgt id='125'> +5.7856490e+02 </wgt>
<wgt id='126'> +4.9687176e+02 </wgt>
<wgt id='127'> +4.8992899e+02 </wgt>
<wgt id='128'> +4.3653231e+02 </wgt>
<wgt id='129'> +5.3111741e+02 </wgt>
<wgt id='130'> +4.7793680e+02 </wgt>
<wgt id='131'> +4.8223342e+02 </wgt>
<wgt id='132'> +5.2435170e+02 </wgt>
<wgt id='133'> +5.1841096e+02 </wgt>
<wgt id='134'> +4.8200268e+02 </wgt>
<wgt id='135'> +4.7882084e+02 </wgt>
<wgt id='136'> +5.2920329e+02 </wgt>
<wgt id='137'> +4.8087237e+02 </wgt>
<wgt id='138'> +4.8498092e+02 </wgt>
<wgt id='139'> +5.0227103e+02 </wgt>
<wgt id='140'> +4.7961286e+02 </wgt>
<wgt id='141'> +5.1192076e+02 </wgt>
<wgt id='142'> +4.0549514e+02 </wgt>
<wgt id='143'> +4.9815339e+02 </wgt>
<wgt id='144'> +4.5044243e+02 </wgt>
<wgt id='145'> +4.6778636e+02 </wgt>
</rwgt>
</event>
<event>
 8      1 +4.8159400e+02 1.93009100e+02 7.54677100e-03 1.15577500e-01
       -2 -1    0    0    0  501 -0.0000000000e+00 +0.0000000000e+00 +3.4712681461e+01 3.4712681461e+01 0.0000000000e+00 0.0000e+00 -1.0000e+00
        2 -1    0    0  502    0 +0.0000000000e+00 -0.0000000000e+00 -1.2884169556e+03 1.2884169556e+03 0.0000000000e+00 0.0000e+00 1.0000e+00
        6  2    1    2  502    0 +6.3033934892e+01 -5.2140592510e+01 -8.9733921719e+02 9.1786808155e+02 1.7484915238e+02 0.0000e+00 0.0000e+00
       -6  2    1    2    0  501 -6.3033934892e+01 +5.2140592510e+01 -3.5636505696e+02 4.0526155552e+02 1.7478259703e+02 0.0000e+00 0.0000e+00
        5  1    3    3  502    0 +1.8088712509e+01 +4.1864059299e+01 -1.0361578599e+02 1.1330543715e+02 4.7000000000e+00 0.0000e+00 -1.0000e+00
       24  1    3    3    0    0 +4.4945222383e+01 -9.4004651809e+01 -7.9372343120e+02 8.0456264440e+02 8.0419002446e+01 0.0000e+00 0.0000e+00
       -5  1    4    4    0  501 -9.3345837493e+01 +3.1504749493e+01 -2.3726328745e+02 2.5694737241e+02 4.7000000000e+00 0.0000e+00 1.0000e+00
      -24  1    4    4    0    0 +3.0311902601e+01 +2.0635843017e+01 -1.1910176950e+02 1.4831418310e+02 8.0419002446e+01 0.0000e+00 0.0000e+00
<mgrwt>
<rscale>  2 0.19300909E+03</rscale>
<asrwt>0</asrwt>
<pdfrwt beam="2">  1        2 0.19821802E+00 0.19300909E+03</pdfrwt>
<pdfrwt beam="1">  1       -2 0.53404119E-02 0.19300909E+03</pdfrwt>
<totfact> 0.31396448E+03</totfact>
</mgrwt>
<rwgt>
<wgt id='1'> +5.8355036e+02 </wgt>
<wgt id='2'> +5.1833589e+02 </wgt>
<wgt id='3'> +4.8868682e+02 </wgt>
<wgt id='4'> +5.9331516e+02 </wgt>
<wgt id='5'> +4.7083186e+02 </wgt>
<wgt id='6'> +5.9092046e+02 </wgt>
<wgt id='7'> +5.2259936e+02 </wgt>
<wgt id='8'> +4.9166987e+02 </wgt>
<wgt id='9'> +6.0119720e+02 </wgt>
<wgt id='10'> +4.7307166e+02 </wgt>
<wgt id='11'> +5.9421468e+02 </wgt>
<wgt id='12'> +5.2369100e+02 </wgt>
<wgt id='13'> +4.9190216e+02 </wgt>
<wgt id='14'> +6.0486703e+02 </wgt>
<wgt id='15'> +4.7281457e+02 </wgt>
<wgt id='16'> +4.7558744e+02 </wgt>
<wgt id='17'> +4.3181680e+02 </wgt>
<wgt id='18'> +4.1075610e+02 </wgt>
<wgt id='19'> +4.8227985e+02 </wgt>
<wgt id='20'> +3.9724054e+02 </wgt>
<wgt id='21'> +4.3536862e+02 </wgt>
<wgt id='22'> +4.1326344e+02 </wgt>
<wgt id='23'> +4.8868682e+02 </wgt>
<wgt id='24'> +3.9913025e+02 </wgt>
<wgt id='25'> +4.8427875e+02 </wgt>
<wgt id='26'> +4.3627806e+02 </wgt>
<wgt id='27'> +4.1345869e+02 </wgt>
<wgt id='28'> +4.9166987e+02 </wgt>
<wgt id='29'> +3.9891336e+02 </wgt>
<wgt id='30'> +4.0041859e+02 </wgt>
<wgt id='31'> +3.6665198e+02 </wgt>
<wgt id='32'> +3.5021475e+02 </wgt>
<wgt id='33'> +4.0537085e+02 </wgt>
<wgt id='34'> +3.3960281e+02 </wgt>
<wgt id='35'> +4.0547578e+02 </wgt>
<wgt id='36'> +3.6966780e+02 </wgt>
<wgt id='37'> +3.5235253e+02 </wgt>
<wgt id='38'> +4.1075610e+02 </wgt>
<wgt id='39'> +3.4121834e+02 </wgt>
<wgt id='40'> +4.0773619e+02 </wgt>
<wgt id='41'> +3.7043999e+02 </wgt>
<wgt id='42'> +3.5251901e+02 </wgt>
<wgt id='43'> +4.1326344e+02 </wgt>
<wgt id='44'> +3.4103291e+02 </wgt>
<wgt id='45'> +4.8159400e+02 </wgt>
<wgt id='46'> +4.8283778e+02 </wgt>
<wgt id='47'> +4.6556289e+02 </wgt>
<wgt id='48'> +4.7219773e+02 </wgt>
<wgt id='49'> +4.7457700e+02 </wgt>
<wgt id='50'> +4.3730819e+02 </wgt>
<wgt id='51'> +4.8311727e+02 </wgt>
<wgt id='52'> +4.7308998e+02 </wgt>
<wgt id='53'> +4.9751481e+02 </wgt>
<wgt id='54'> +4.7306250e+02 </wgt>
<wgt id='55'> +4.6188648e+02 </wgt>
<wgt id='56'> +5.1439078e+02 </wgt>
<wgt id='57'> +4.6762534e+02 </wgt>
<wgt id='58'> +5.0534838e+02 </wgt>
<wgt id='59'> +4.4512739e+02 </wgt>
<wgt id='60'> +4.8696484e+02 </wgt>
<wgt id='61'> +5.3099521e+02 </wgt>
<wgt id='62'> +4.9674515e+02 </wgt>
<wgt id='63'> +4.8310889e+02 </wgt>
<wgt id='64'> +4.7886525e+02 </wgt>
<wgt id='65'> +4.7979896e+02 </wgt>
<wgt id='66'> +4.9246730e+02 </wgt>
<wgt id='67'> +4.8830908e+02 </wgt>
<wgt id='68'> +4.0802210e+02 </wgt>
<wgt id='69'> +4.5394091e+02 </wgt>
<wgt id='70'> +4.7034329e+02 </wgt>
<wgt id='71'> +4.9370235e+02 </wgt>
<wgt id='72'> +5.0831364e+02 </wgt>
<wgt id='73'> +4.9894679e+02 </wgt>
<wgt id='74'> +4.2975543e+02 </wgt>
<wgt id='75'> +4.5645415e+02 </wgt>
<wgt id='76'> +5.0478702e+02 </wgt>
<wgt id='77'> +4.9850532e+02 </wgt>
<wgt id='78'> +5.1430083e+02 </wgt>
<wgt id='79'> +4.8559832e+02 </wgt>
<wgt id='80'> +5.2799544e+02 </wgt>
<wgt id='81'> +4.8986556e+02 </wgt>
<wgt id='82'> +4.8289634e+02 </wgt>
<wgt id='83'> +4.7106280e+02 </wgt>
<wgt id='84'> +4.8001103e+02 </wgt>
<wgt id='85'> +4.8064669e+02 </wgt>
<wgt id='86'> +4.7209558e+02 </wgt>
<wgt id='87'> +4.8639483e+02 </wgt>
<wgt id='88'> +4.8482061e+02 </wgt>
<wgt id='89'> +4.8628592e+02 </wgt>
<wgt id='90'> +5.1321689e+02 </wgt>
<wgt id='91'> +4.5577332e+02 </wgt>
<wgt id='92'> +5.1911019e+02 </wgt>
<wgt id='93'> +4.6741154e+02 </wgt>
<wgt id='94'> +4.8594667e+02 </wgt>
<wgt id='95'> +4.7670272e+02 </wgt>
<wgt id='96'> +4.6547927e+02 </wgt>
<wgt id='97'> +5.0375202e+02 </wgt>
<wgt id='98'> +4.8987999e+02 </wgt>
<wgt id='99'> +5.1287144e+02 </wgt>
<wgt id='100'> +5.2356100e+02 </wgt>
<wgt id='101'> +4.1395690e+02 </wgt>
<wgt id='102'> +4.4648055e+02 </wgt>
<wgt id='103'> +4.6010465e+02 </wgt>
<wgt id='104'> +4.6325113e+02 </wgt>
<wgt id='105'> +4.8296011e+02 </wgt>
<wgt id='106'> +5.2154555e+02 </wgt>
<wgt id='107'> +4.8153773e+02 </wgt>
<wgt id='108'> +5.4236048e+02 </wgt>
<wgt id='109'> +5.0143840e+02 </wgt>
<wgt id='110'> +5.0177490e+02 </wgt>
<wgt id='111'> +5.0951553e+02 </wgt>
<wgt id='112'> +4.9799525e+02 </wgt>
<wgt id='113'> +4.8491609e+02 </wgt>
<wgt id='114'> +4.8547978e+02 </wgt>
<wgt id='115'> +5.1050164e+02 </wgt>
<wgt id='116'> +4.4741234e+02 </wgt>
<wgt id='117'> +4.8210966e+02 </wgt>
<wgt id='118'> +4.5171275e+02 </wgt>
<wgt id='119'> +4.8206536e+02 </wgt>
<wgt id='120'> +4.8625012e+02 </wgt>
<wgt id='121'> +4.8234338e+02 </wgt>
<wgt id='122'> +4.9846456e+02 </wgt>
<wgt id='123'> +5.1730484e+02 </wgt>
<wgt id='124'> +4.3918799e+02 </wgt>
<wgt id='125'> +4.1039609e+02 </wgt>
<wgt id='126'> +4.7961060e+02 </wgt>
<wgt id='127'> +4.7144778e+02 </wgt>
<wgt id='128'> +4.9022156e+02 </wgt>
<wgt id='129'> +4.4916983e+02 </wgt>
<wgt id='130'> +4.7460161e+02 </wgt>
<wgt id='131'> +4.7716458e+02 </wgt>
<wgt id='132'> +4.4775559e+02 </wgt>
<wgt id='133'> +4.6263834e+02 </wgt>
<wgt id='134'> +4.7483740e+02 </wgt>
<wgt id='135'> +4.7087800e+02 </wgt>
<wgt id='136'> +4.5797529e+02 </wgt>
<wgt id='137'> +4.9683243e+02 </wgt>
<wgt id='138'> +4.9248121e+02 </wgt>
<wgt id='139'> +4.6883738e+02 </wgt>
<wgt id='140'> +4.7745269e+02 </wgt>
<wgt id='141'> +4.5565806e+02 </wgt>
<wgt id='142'> +5.3814642e+02 </wgt>
<wgt id='143'> +4.9582273e+02 </wgt>
<wgt id='144'> +5.1633571e+02 </wgt>
<wgt id='145'> +4.9859385e+02 </wgt>
</rwgt>
</event>
<event>
 8      1 +4.8159400e+02 3.45803200e+02 7.54677100e-03 1.06439000e-01
       21 -1    0    0  503  502 +0.0000000000e+00 +0.0000000000e+00 +7.3578301102e+02 7.3578301102e+02 0.0000000000e+00 0.0000e+00 -1.0000e+00
       21 -1    0    0  501  503 -0.0000000000e+00 -0.0000000000e+00 -2.8155826526e+02 2.8155826526e+02 0.0000000000e+00 0.0000e+00 1.0000e+00
        6  2    1    2  501    0 +2.3317399814e+02 -1.8771716111e+02 -1.0380844676e+02 3.6104858164e+02 1.7312434463e+02 0.0000e+00 0.0000e+00
       -6  2    1    2    0  502 -2.3317399814e+02 +1.8771716111e+02 +5.5803319252e+02 6.5629269465e+02 1.7236940306e+02 0.0000e+00 0.0000e+00
        5  1    3    3  501    0 -6.9322085843e+00 +9.0349172104e+00 -2.9373398575e+01 3.1852343535e+01 4.7000000000e+00 0.0000e+00 -1.0000e+00
       24  1    3    3    0    0 +2.4010620672e+02 -1.9675207832e+02 -7.4435048184e+01 3.2919623810e+02 8.0419002446e+01 0.0000e+00 0.0000e+00
       -5  1    4    4    0  502 -4.9808118272e+00 +7.9813869762e+01 +1.1658559450e+02 1.4145442071e+02 4.7000000000e+00 0.0000e+00 1.0000e+00
      -24  1    4    4    0    0 -2.2819318631e+02 +1.0790329134e+02 +4.4144759802e+02 5.1483827394e+02 8.0419002446e+01 0.0000e+00 0.0000e+00
<mgrwt>
<rscale>  2 0.34570887E+03</rscale>
<asrwt>0</asrwt>
<pdfrwt beam="1">  1       21 0.11319739E+00 0.34580325E+03</pdfrwt>
<pdfrwt beam="2">  1       21 0.43316657E-01 0.34580325E+03</pdfrwt>
<totfact> 0.28255068E+03</totfact>
</mgrwt>
<rwgt>
<wgt id='1'> +6.4553236e+02 </wgt>
<wgt id='2'> +4.8869728e+02 </wgt>
<wgt id='3'> +4.8548816e+02 </wgt>
<wgt id='4'> +6.5111428e+02 </wgt>
<wgt id='5'> +4.3103974e+02 </wgt>
<wgt id='6'> +5.7395950e+02 </wgt>
<wgt id='7'> +4.3600627e+02 </wgt>
<wgt id='8'> +4.3319119e+02 </wgt>
<wgt id='9'> +5.7900307e+02 </wgt>
<wgt id='10'> +3.8538774e+02 </wgt>
<wgt id='11'> +5.1220244e+02 </wgt>
<wgt id='12'> +3.9085123e+02 </wgt>
<wgt id='13'> +3.8837025e+02 </wgt>
<wgt id='14'> +5.1663263e+02 </wgt>
<wgt id='15'> +3.4620393e+02 </wgt>
<wgt id='16'> +5.4164887e+02 </wgt>
<wgt id='17'> +4.1598427e+02 </wgt>
<wgt id='18'> +4.1337769e+02 </wgt>
<wgt id='19'> +5.4595268e+02 </wgt>
<wgt id='20'> +3.6897161e+02 </wgt>
<wgt id='21'> +3.7113313e+02 </wgt>
<wgt id='22'> +3.6884849e+02 </wgt>
<wgt id='23'> +4.8548816e+02 </wgt>
<wgt id='24'> +3.2989333e+02 </wgt>
<wgt id='25'> +4.2977531e+02 </wgt>
<wgt id='26'> +3.3269668e+02 </wgt>
<wgt id='27'> +3.3068488e+02 </wgt>
<wgt id='28'> +4.3319119e+02 </wgt>
<wgt id='29'> +2.9635184e+02 </wgt>
<wgt id='30'> +4.6136583e+02 </wgt>
<wgt id='31'> +3.5836967e+02 </wgt>
<wgt id='32'> +3.5621569e+02 </wgt>
<wgt id='33'> +4.6486131e+02 </wgt>
<wgt id='34'> +3.1940618e+02 </wgt>
<wgt id='35'> +4.1021227e+02 </wgt>
<wgt id='36'> +3.1973049e+02 </wgt>
<wgt id='37'> +3.1784400e+02 </wgt>
<wgt id='38'> +4.1337769e+02 </wgt>
<wgt id='39'> +2.8557744e+02 </wgt>
<wgt id='40'> +3.6607413e+02 </wgt>
<wgt id='41'> +2.8661757e+02 </wgt>
<wgt id='42'> +2.8495767e+02 </wgt>
<wgt id='43'> +3.6884849e+02 </wgt>
<wgt id='44'> +2.5654171e+02 </wgt>
<wgt id='45'> +4.8159400e+02 </wgt>
<wgt id='46'> +5.0275189e+02 </wgt>
<wgt id='47'> +5.0487286e+02 </wgt>
<wgt id='48'> +4.9132744e+02 </wgt>
<wgt id='49'> +4.6786987e+02 </wgt>
<wgt id='50'> +6.0821060e+02 </wgt>
<wgt id='51'> +4.6678861e+02 </wgt>
<wgt id='52'> +4.7728761e+02 </wgt>
<wgt id='53'> +4.7074057e+02 </wgt>
<wgt id='54'> +4.9376870e+02 </wgt>
<wgt id='55'> +4.6219083e+02 </wgt>
<wgt id='56'> +4.3129209e+02 </wgt>
<wgt id='57'> +4.8606092e+02 </wgt>
<wgt id='58'> +4.5507131e+02 </wgt>
<wgt id='59'> +5.1210226e+02 </wgt>
<wgt id='60'> +4.8657086e+02 </wgt>
<wgt id='61'> +4.0714840e+02 </wgt>
<wgt id='62'> +4.6976745e+02 </wgt>
<wgt id='63'> +4.8746392e+02 </wgt>
<wgt id='64'> +4.6503313e+02 </wgt>
<wgt id='65'> +5.2677014e+02 </wgt>
<wgt id='66'> +4.7801935e+02 </wgt>
<wgt id='67'> +4.8425917e+02 </wgt>
<wgt id='68'> +5.5195370e+02 </wgt>
<wgt id='69'> +5.0244982e+02 </wgt>
<wgt id='70'> +4.7915060e+02 </wgt>
<wgt id='71'> +4.8004524e+02 </wgt>
<wgt id='72'> +4.3909239e+02 </wgt>
<wgt id='73'> +4.5471088e+02 </wgt>
<wgt id='74'> +5.2766193e+02 </wgt>
<wgt id='75'> +5.0088468e+02 </wgt>
<wgt id='76'> +4.7478724e+02 </wgt>
<wgt id='77'> +4.7438285e+02 </wgt>
<wgt id='78'> +4.4325827e+02 </wgt>
<wgt id='79'> +4.8688389e+02 </wgt>
<wgt id='80'> +4.5788708e+02 </wgt>
<wgt id='81'> +4.7167602e+02 </wgt>
<wgt id='82'> +4.6789396e+02 </wgt>
<wgt id='83'> +4.9288498e+02 </wgt>
<wgt id='84'> +5.1911787e+02 </wgt>
<wgt id='85'> +4.8303079e+02 </wgt>
<wgt id='86'> +4.9457788e+02 </wgt>
<wgt id='87'> +4.8671589e+02 </wgt>
<wgt id='88'> +4.8700880e+02 </wgt>
<wgt id='89'> +4.7944408e+02 </wgt>
<wgt id='90'> +4.8682070e+02 </wgt>
<wgt id='91'> +4.8028421e+02 </wgt>
<wgt id='92'> +4.2008123e+02 </wgt>
<wgt id='93'> +4.8578126e+02 </wgt>
<wgt id='94'> +4.5561508e+02 </wgt>
<wgt id='95'> +4.7423646e+02 </wgt>
<wgt id='96'> +5.3013178e+02 </wgt>
<wgt id='97'> +4.6435523e+02 </wgt>
<wgt id='98'> +4.8037735e+02 </wgt>
<wgt id='99'> +4.4250128e+02 </wgt>
<wgt id='100'> +4.1895183e+02 </wgt>
<wgt id='101'> +5.5912137e+02 </wgt>
<wgt id='102'> +5.2131301e+02 </wgt>
<wgt id='103'> +5.1806678e+02 </wgt>
<wgt id='104'> +4.9875649e+02 </wgt>
<wgt id='105'> +4.8896078e+02 </wgt>
<wgt id='106'> +4.2539868e+02 </wgt>
<wgt id='107'> +4.4280167e+02 </wgt>
<wgt id='108'> +4.1259411e+02 </wgt>
<wgt id='109'> +4.4619317e+02 </wgt>
<wgt id='110'> +4.6680514e+02 </wgt>
<wgt id='111'> +4.6245977e+02 </wgt>
<wgt id='112'> +4.5481641e+02 </wgt>
<wgt id='113'> +4.4571202e+02 </wgt>
<wgt id='114'> +4.6061183e+02 </wgt>
<wgt id='115'> +4.4208789e+02 </wgt>
<wgt id='116'> +5.2024646e+02 </wgt>
<wgt id='117'> +4.7087331e+02 </wgt>
<wgt id='118'> +5.1819560e+02 </wgt>
<wgt id='119'> +4.7261522e+02 </wgt>
<wgt id='120'> +4.6595737e+02 </wgt>
<wgt id='121'> +4.6665296e+02 </wgt>
<wgt id='122'> +4.7293061e+02 </wgt>
<wgt id='123'> +4.8654967e+02 </wgt>
<wgt id='124'> +5.5390164e+02 </wgt>
<wgt id='125'> +5.6561276e+02 </wgt>
<wgt id='126'> +4.9994199e+02 </wgt>
<wgt id='127'> +4.9408235e+02 </wgt>
<wgt id='128'> +4.3447026e+02 </wgt>
<wgt id='129'> +5.3816708e+02 </wgt>
<wgt id='130'> +4.8059742e+02 </wgt>
<wgt id='131'> +4.9207621e+02 </wgt>
<wgt id='132'> +5.1687020e+02 </wgt>
<wgt id='133'> +5.1109931e+02 </wgt>
<wgt id='134'> +4.7473709e+02 </wgt>
<wgt id='135'> +4.8336889e+02 </wgt>
<wgt id='136'> +5.1450988e+02 </wgt>
<wgt id='137'> +4.7330380e+02 </wgt>
<wgt id='138'> +4.7475020e+02 </wgt>
<wgt id='139'> +5.0135985e+02 </wgt>
<wgt id='140'> +4.8604786e+02 </wgt>
<wgt id='141'> +5.0314878e+02 </wgt>
<wgt id='142'> +4.2457019e+02 </wgt>
<wgt id='143'> +4.9550459e+02 </wgt>
<wgt id='144'> +4.5689535e+02 </wgt>
<wgt id='145'> +4.7246904e+02 </wgt>
</rwgt>
</event>
<event>
 8      1 +4.8159400e+02 1.79793800e+02 7.54677100e-03 1.16841100e-01
       21 -1    0    0  501  502 +0.0000000000e+00 +0.0000000000e+00 +1.5543766106e+02 1.5543766106e+02 0.0000000000e+00 0.0000e+00 -1.0000e+00
       21 -1    0    0  502  503 -0.0000000000e+00 -0.0000000000e+00 -2.1059657635e+02 2.1059657635e+02 0.0000000000e+00 0.0000e+00 -1.0000e+00
       -6  2    1    2    0  503 +4.4374567622e+01 -2.3866422962e+01 -5.4399255953e+01 1.8623878739e+02 1.7084173519e+02 0.0000e+00 0.0000e+00
        6  2    1    2  501    0 -4.4374567622e+01 +2.3866422962e+01 -7.5965934240e-01 1.7979545002e+02 1.7258945035e+02 0.0000e+00 0.0000e+00
        5  1    4    4  501    0 -6.5042812737e+01 +2.7206733812e+01 +4.6124697587e+01 8.4382175730e+01 4.7000000000e+00 0.0000e+00 -1.0000e+00
       24  1    4    4    0    0 +2.0668245115e+01 -3.3403108498e+00 -4.6884356929e+01 9.5413274295e+01 8.0419002446e+01 0.0000e+00 0.0000e+00
       -5  1    3    3    0  503 +7.7646011517e+01 +1.5516082620e+01 -4.2459325305e+01 8.9969640600e+01 4.7000000000e+00 0.0000e+00 1.0000e+00
      -24  1    3    3    0    0 -3.3271443895e+01 -3.9382505583e+01 -1.1939930648e+01 9.6269146787e+01 8.0419002446e+01 0.0000e+00 0.0000e+00
<mgrwt>
<rscale>  2 0.17937312E+03</rscale>
<asrwt>0</asrwt>
<pdfrwt beam="1">  1       21 0.23913486E-01 0.17979385E+03</pdfrwt>
<pdfrwt beam="2">  1       21 0.32399473E-01 0.17979385E+03</pdfrwt>
<totfact> 0.15172015E+05</totfact>
</mgrwt>
<rwgt>
<wgt id='1'> +6.1055576e+02 </wgt>
<wgt id='2'> +5.2181961e+02 </wgt>
<wgt id='3'> +4.9596274e+02 </wgt>
<wgt id='4'> +6.2986053e+02 </wgt>
<wgt id='5'> +4.8028443e+02 </wgt>
<wgt id='6'> +5.9294508e+02 </wgt>
<wgt id='7'> +4.9936137e+02 </wgt>
<wgt id='8'> +4.7259287e+02 </wgt>
<wgt id='9'> +6.1300001e+02 </wgt>
<wgt id='10'> +4.5689574e+02 </wgt>
<wgt id='11'> +5.6411925e+02 </wgt>
<wgt id='12'> +4.7414226e+02 </wgt>
<wgt id='13'> +4.4857342e+02 </wgt>
<wgt id='14'> +5.8411531e+02 </wgt>
<wgt id='15'> +4.3359219e+02 </wgt>
<wgt id='16'> +4.9589752e+02 </wgt>
<wgt id='17'> +4.3395070e+02 </wgt>
<wgt id='18'> +4.1537011e+02 </wgt>
<wgt id='19'> +5.0960416e+02 </wgt>
<wgt id='20'> +4.0360239e+02 </wgt>
<wgt id='21'> +4.1527419e+02 </wgt>
<wgt id='22'> +3.9579777e+02 </wgt>
<wgt id='23'> +4.9596274e+02 </wgt>
<wgt id='24'> +3.8394793e+02 </wgt>
<wgt id='25'> +4.5818147e+02 </wgt>
<wgt id='26'> +3.9430171e+02 </wgt>
<wgt id='27'> +3.7568143e+02 </wgt>
<wgt id='28'> +4.7259287e+02 </wgt>
<wgt id='29'> +3.6436501e+02 </wgt>
<wgt id='30'> +4.1660857e+02 </wgt>
<wgt id='31'> +3.6821613e+02 </wgt>
<wgt id='32'> +3.5346689e+02 </wgt>
<wgt id='33'> +4.2679483e+02 </wgt>
<wgt id='34'> +3.4406995e+02 </wgt>
<wgt id='35'> +4.0459204e+02 </wgt>
<wgt id='36'> +3.5236872e+02 </wgt>
<wgt id='37'> +3.3681145e+02 </wgt>
<wgt id='38'> +4.1537011e+02 </wgt>
<wgt id='39'> +3.2731458e+02 </wgt>
<wgt id='40'> +3.8492294e+02 </wgt>
<wgt id='41'> +3.3457314e+02 </wgt>
<wgt id='42'> +3.1969307e+02 </wgt>
<wgt id='43'> +3.9579777e+02 </wgt>
<wgt id='44'> +3.1062019e+02 </wgt>
<wgt id='45'> +4.8159400e+02 </wgt>
<wgt id='46'> +4.7631452e+02 </wgt>
<wgt id='47'> +4.9561028e+02 </wgt>
<wgt id='48'> +4.7965301e+02 </wgt>
<wgt id='49'> +4.8108219e+02 </wgt>
<wgt id='50'> +5.4676175e+02 </wgt>
<wgt id='51'> +4.7235480e+02 </wgt>
<wgt id='52'> +4.7742178e+02 </wgt>
<wgt id='53'> +4.9175703e+02 </wgt>
<wgt id='54'> +4.8430432e+02 </wgt>
<wgt id='55'> +4.3157731e+02 </wgt>
<wgt id='56'> +4.5442626e+02 </wgt>
<wgt id='57'> +4.6870754e+02 </wgt>
<wgt id='58'> +4.8984693e+02 </wgt>
<wgt id='59'> +4.6847924e+02 </wgt>
<wgt id='60'> +4.5649506e+02 </wgt>
<wgt id='61'> +4.8075534e+02 </wgt>
<wgt id='62'> +4.7433446e+02 </wgt>
<wgt id='63'> +4.8202053e+02 </wgt>
<wgt id='64'> +4.8228336e+02 </wgt>
<wgt id='65'> +5.6860265e+02 </wgt>
<wgt id='66'> +4.6917119e+02 </wgt>
<wgt id='67'> +4.8597524e+02 </wgt>
<wgt id='68'> +5.0896369e+02 </wgt>
<wgt id='69'> +4.6337864e+02 </wgt>
<wgt id='70'> +4.7476094e+02 </wgt>
<wgt id='71'> +4.9095919e+02 </wgt>
<wgt id='72'> +4.7793103e+02 </wgt>
<wgt id='73'> +4.7796356e+02 </wgt>
<wgt id='74'> +4.8980580e+02 </wgt>
<wgt id='75'> +4.9072138e+02 </wgt>
<wgt id='76'> +4.6892539e+02 </wgt>
<wgt id='77'> +4.6059848e+02 </wgt>
<wgt id='78'> +4.8835896e+02 </wgt>
<wgt id='79'> +4.5855968e+02 </wgt>
<wgt id='80'> +4.7976817e+02 </wgt>
<wgt id='81'> +4.7498739e+02 </wgt>
<wgt id='82'> +4.9806075e+02 </wgt>
<wgt id='83'> +4.8882696e+02 </wgt>
<wgt id='84'> +5.2582419e+02 </wgt>
<wgt id='85'> +5.0681902e+02 </wgt>
<wgt id='86'> +4.7511943e+02 </wgt>
<wgt id='87'> +4.7954892e+02 </wgt>
<wgt id='88'> +4.8840610e+02 </wgt>
<wgt id='89'> +4.9025554e+02 </wgt>
<wgt id='90'> +4.8475373e+02 </wgt>
<wgt id='91'> +5.1407828e+02 </wgt>
<wgt id='92'> +4.5325389e+02 </wgt>
<wgt id='93'> +4.7027536e+02 </wgt>
<wgt id='94'> +4.8310912e+02 </wgt>
<wgt id='95'> +4.6427862e+02 </wgt>
<wgt id='96'> +5.1306685e+02 </wgt>
<wgt id='97'> +4.9245008e+02 </wgt>
<wgt id='98'> +4.5825693e+02 </wgt>
<wgt id='99'> +4.7008460e+02 </wgt>
<wgt id='100'> +4.8757124e+02 </wgt>
<wgt id='101'> +4.9425685e+02 </wgt>
<wgt id='102'> +4.5820452e+02 </wgt>
<wgt id='103'> +5.1801236e+02 </wgt>
<wgt id='104'> +4.7797839e+02 </wgt>
<wgt id='105'> +5.0428344e+02 </wgt>
<wgt id='106'> +4.5238489e+02 </wgt>
<wgt id='107'> +4.8520710e+02 </wgt>
<wgt id='108'> +4.4099421e+02 </wgt>
<wgt id='109'> +4.5817522e+02 </wgt>
<wgt id='110'> +4.8431070e+02 </wgt>
<wgt id='111'> +4.7240444e+02 </wgt>
<wgt id='112'> +4.6508755e+02 </wgt>
<wgt id='113'> +4.4680604e+02 </wgt>
<wgt id='114'> +4.8991353e+02 </wgt>
<wgt id='115'> +4.9299063e+02 </wgt>
<wgt id='116'> +4.7294724e+02 </wgt>
<wgt id='117'> +4.9167482e+02 </wgt>
<wgt id='118'> +4.8616458e+02 </wgt>
<wgt id='119'> +4.6571609e+02 </wgt>
<wgt id='120'> +4.8630965e+02 </wgt>
<wgt id='121'> +4.7086863e+02 </wgt>
<wgt id='122'> +4.7648309e+02 </wgt>
<wgt id='123'> +4.8585564e+02 </wgt>
<wgt id='124'> +5.0422762e+02 </wgt>
<wgt id='125'> +5.0628648e+02 </wgt>
<wgt id='126'> +4.9671694e+02 </wgt>
<wgt id='127'> +4.9287615e+02 </wgt>
<wgt id='128'> +4.5289176e+02 </wgt>
<wgt id='129'> +5.4180438e+02 </wgt>
<wgt id='130'> +4.8398863e+02 </wgt>
<wgt id='131'> +5.1615943e+02 </wgt>
<wgt id='132'> +4.6994432e+02 </wgt>
<wgt id='133'> +4.7215079e+02 </wgt>
<wgt id='134'> +4.5169478e+02 </wgt>
<wgt id='135'> +4.9397321e+02 </wgt>
<wgt id='136'> +4.5667806e+02 </wgt>
<wgt id='137'> +4.5144736e+02 </wgt>
<wgt id='138'> +4.3161192e+02 </wgt>
<wgt id='139'> +4.8750949e+02 </wgt>
<wgt id='140'> +5.1546645e+02 </wgt>
<wgt id='141'> +4.7892598e+02 </wgt>
<wgt id='142'> +4.9279658e+02 </wgt>
<wgt id='143'> +4.7387432e+02 </wgt>
<wgt id='144'> +4.8545886e+02 </wgt>
<wgt id='145'> +4.8252538e+02 </wgt>
</rwgt>
</event>
<event>
 8      1 +4.8159400e+02 1.92803800e+02 7.54677100e-03 1.15709400e-01
       21 -1    0    0  503  502 +0.0000000000e+00 +0.0000000000e+00 +2.9273243300e+01 2.9273243300e+01 0.0000000000e+00 0.0000e+00 1.0000e+00
       21 -1    0    0  501  503 -0.0000000000e+00 -0.0000000000e+00 -1.6084985424e+03 1.6084985424e+03 0.0000000000e+00 0.0000e+00 1.0000e+00
        6  2    1    2  501    0 -5.4214634587e+00 -8.5347440285e+01 -1.1913789774e+03 1.2068791044e+03 1.7279967334e+02 0.0000e+00 0.0000e+00
       -6  2    1    2    0  502 +5.4214634587e+00 +8.5347440285e+01 -3.8784632177e+02 4.3089268134e+02 1.6712317519e+02 0.0000e+00 0.0000e+00
        5  1    3    3  501    0 -5.8719059141e-01 -9.3176936748e+01 -3.7236843347e+02 3.8387840077e+02 4.7000000000e+00 0.0000e+00 -1.0000e+00
       24  1    3    3    0    0 -4.8342728673e+00 +7.8294964636e+00 -8.1901054389e+02 8.2300070362e+02 8.0419002446e+01 0.0000e+00 0.0000e+00
       -5  1    4    4    0  502 +2.0166415080e+01 +9.0341105315e+01 -2.8331903437e+02 2.9809388595e+02 4.7000000000e+00 0.0000e+00 1.0000e+00
      -24  1    4    4    0    0 -1.4744951621e+01 -4.9936650303e+00 -1.0452728740e+02 1.3279879538e+02 8.0419002446e+01 0.0000e+00 1.0000e+00
<mgrwt>
<rscale>  2 0.19152344E+03</rscale>
<asrwt>0</asrwt>
<pdfrwt beam="1">  1       21 0.45035759E-02 0.19280380E+03</pdfrwt>
<pdfrwt beam="2">  1       21 0.24746131E+00 0.19280380E+03</pdfrwt>
<totfact> 0.22090656E+04</totfact>
</mgrwt>
<rwgt>
<wgt id='1'> +6.5637173e+02 </wgt>
<wgt id='2'> +6.2352954e+02 </wgt>
<wgt id='3'> +5.0205678e+02 </wgt>
<wgt id='4'> +6.8618066e+02 </wgt>
<wgt id='5'> +4.5700072e+02 </wgt>
<wgt id='6'> +5.9114052e+02 </wgt>
<wgt id='7'> +5.6020535e+02 </wgt>
<wgt id='8'> +4.4673585e+02 </wgt>
<wgt id='9'> +6.1896273e+02 </wgt>
<wgt id='10'> +4.0673172e+02 </wgt>
<wgt id='11'> +5.2581973e+02 </wgt>
<wgt id='12'> +4.9854075e+02 </wgt>
<wgt id='13'> +3.9881039e+02 </wgt>
<wgt id='14'> +5.5076010e+02 </wgt>
<wgt id='15'> +3.6361766e+02 </wgt>
<wgt id='16'> +5.3473696e+02 </wgt>
<wgt id='17'> +5.1109878e+02 </wgt>
<wgt id='18'> +4.2139292e+02 </wgt>
<wgt id='19'> +5.5657899e+02 </wgt>
<wgt id='20'> +3.8575929e+02 </wgt>
<wgt id='21'> +4.5919279e+02 </wgt>
<wgt id='22'> +3.7496023e+02 </wgt>
<wgt id='23'> +5.0205678e+02 </wgt>
<wgt id='24'> +3.4332668e+02 </wgt>
<wgt id='25'> +4.2837806e+02 </wgt>
<wgt id='26'> +4.0864716e+02 </wgt>
<wgt id='27'> +3.3473481e+02 </wgt>
<wgt id='28'> +4.4673585e+02 </wgt>
<wgt id='29'> +3.0693363e+02 </wgt>
<wgt id='30'> +4.5012202e+02 </wgt>
<wgt id='31'> +4.3133314e+02 </wgt>
<wgt id='32'> +3.5899431e+02 </wgt>
<wgt id='33'> +4.6715523e+02 </wgt>
<wgt id='34'> +3.2993701e+02 </wgt>
<wgt id='35'> +4.0538822e+02 </wgt>
<wgt id='36'> +3.8752796e+02 </wgt>
<wgt id='37'> +3.1943723e+02 </wgt>
<wgt id='38'> +4.2139292e+02 </wgt>
<wgt id='39'> +2.9364472e+02 </wgt>
<wgt id='40'> +3.6059298e+02 </wgt>
<wgt id='41'> +3.4487083e+02 </wgt>
<wgt id='42'> +2.8516827e+02 </wgt>
<wgt id='43'> +3.7496023e+02 </wgt>
<wgt id='44'> +2.6251802e+02 </wgt>
<wgt id='45'> +4.8159400e+02 </wgt>
<wgt id='46'> +4.9104588e+02 </wgt>
<wgt id='47'> +5.2019790e+02 </wgt>
<wgt id='48'> +4.8016559e+02 </wgt>
<wgt id='49'> +4.3098595e+02 </wgt>
<wgt id='50'> +5.5854450e+02 </wgt>
<wgt id='51'> +4.4936250e+02 </wgt>
<wgt id='52'> +4.2210791e+02 </wgt>
<wgt id='53'> +5.0185981e+02 </wgt>
<wgt id='54'> +5.1604303e+02 </wgt>
<wgt id='55'> +5.7903252e+02 </wgt>
<wgt id='56'> +4.7163267e+02 </wgt>
<wgt id='57'> +5.1902193e+02 </wgt>
<wgt id='58'> +4.2049080e+02 </wgt>
<wgt id='59'> +5.2349244e+02 </wgt>
<wgt id='60'> +4.7294183e+02 </wgt>
<wgt id='61'> +3.9251246e+02 </wgt>
<wgt id='62'> +4.2637823e+02 </wgt>
<wgt id='63'> +5.1570642e+02 </wgt>
<wgt id='64'> +4.8537275e+02 </wgt>
<wgt id='65'> +3.9728314e+02 </wgt>
<wgt id='66'> +4.9637658e+02 </wgt>
<wgt id='67'> +4.8415968e+02 </wgt>
<wgt id='68'> +6.3315449e+02 </wgt>
<wgt id='69'> +5.4991123e+02 </wgt>
<wgt id='70'> +5.6541953e+02 </wgt>
<wgt id='71'> +4.2571439e+02 </wgt>
<wgt id='72'> +4.1938838e+02 </wgt>
<wgt id='73'> +4.2693381e+02 </wgt>
<wgt id='74'> +5.8888384e+02 </wgt>
<wgt id='75'> +5.6110794e+02 </wgt>
<wgt id='76'> +4.9773281e+02 </wgt>
<wgt id='77'> +4.3633800e+02 </wgt>
<wgt id='78'> +3.9769368e+02 </wgt>
<wgt id='79'> +5.3996171e+02 </wgt>
<wgt id='80'> +4.0101949e+02 </wgt>
<wgt id='81'> +5.1964672e+02 </wgt>
<wgt id='82'> +4.8031048e+02 </wgt>
<wgt id='83'> +4.7506586e+02 </wgt>
<wgt id='84'> +4.4585991e+02 </wgt>
<wgt id='85'> +4.1185374e+02 </wgt>
<wgt id='86'> +5.2349734e+02 </wgt>
<wgt id='87'> +4.6435200e+02 </wgt>
<wgt id='88'> +4.7846215e+02 </wgt>
<wgt id='89'> +3.5746010e+02 </wgt>
<wgt id='90'> +4.1762299e+02 </wgt>
<wgt id='91'> +3.8497230e+02 </wgt>
<wgt id='92'> +4.5661027e+02 </wgt>
<wgt id='93'> +4.9476861e+02 </wgt>
<wgt id='94'> +4.3215738e+02 </wgt>
<wgt id='95'> +5.0711554e+02 </wgt>
<wgt id='96'> +5.0055030e+02 </wgt>
<wgt id='97'> +4.1712324e+02 </wgt>
<wgt id='98'> +5.5327383e+02 </wgt>
<wgt id='99'> +3.7962774e+02 </wgt>
<wgt id='100'> +3.3362113e+02 </wgt>
<wgt id='101'> +5.6992280e+02 </wgt>
<wgt id='102'> +5.5680147e+02 </wgt>
<wgt id='103'> +4.2810964e+02 </wgt>
<wgt id='104'> +5.3216369e+02 </wgt>
<wgt id='105'> +4.9065465e+02 </wgt>
<wgt id='106'> +4.8575738e+02 </wgt>
<wgt id='107'> +4.8402925e+02 </wgt>
<wgt id='108'> +4.5759603e+02 </wgt>
<wgt id='109'> +4.8270689e+02 </wgt>
<wgt id='110'> +4.1739627e+02 </wgt>
<wgt id='111'> +4.6068606e+02 </wgt>
<wgt id='112'> +5.1144190e+02 </wgt>
<wgt id='113'> +5.5140803e+02 </wgt>
<wgt id='114'> +4.9943343e+02 </wgt>
<wgt id='115'> +4.4640501e+02 </wgt>
<wgt id='116'> +5.4196365e+02 </wgt>
<wgt id='117'> +4.7918119e+02 </wgt>
<wgt id='118'> +4.8423324e+02 </wgt>
<wgt id='119'> +5.4659078e+02 </wgt>
<wgt id='120'> +4.7973265e+02 </wgt>
<wgt id='121'> +4.5834831e+02 </wgt>
<wgt id='122'> +4.6354222e+02 </wgt>
<wgt id='123'> +4.4084356e+02 </wgt>
<wgt id='124'> +5.3939259e+02 </wgt>
<wgt id='125'> +6.4744464e+02 </wgt>
<wgt id='126'> +4.6084200e+02 </wgt>
<wgt id='127'> +4.4215980e+02 </wgt>
<wgt id='128'> +4.7950666e+02 </wgt>
<wgt id='129'> +4.6597378e+02 </wgt>
<wgt id='130'> +4.9597785e+02 </wgt>
<wgt id='131'> +4.1818304e+02 </wgt>
<wgt id='132'> +5.2137949e+02 </wgt>
<wgt id='133'> +5.3550930e+02 </wgt>
<wgt id='134'> +5.2543741e+02 </wgt>
<wgt id='135'> +4.5001111e+02 </wgt>
<wgt id='136'> +5.8761898e+02 </wgt>
<wgt id='137'> +5.4240957e+02 </wgt>
<wgt id='138'> +5.1384127e+02 </wgt>
<wgt id='139'> +4.9812519e+02 </wgt>
<wgt id='140'> +4.6383363e+02 </wgt>
<wgt id='141'> +5.9023373e+02 </wgt>
<wgt id='142'> +2.7514496e+02 </wgt>
<wgt id='143'> +4.8892714e+02 </wgt>
<wgt id='144'> +4.2174870e+02 </wgt>
<wgt id='145'> +4.3192564e+02 </wgt>
</rwgt>
</event>
<event>
 8      1 +4.8159400e+02 2.01796000e+02 7.54677100e-03 1.14837300e-01
       21 -1    0    0  501  502 +0.0000000000e+00 +0.0000000000e+00 +2.7317381792e+02 2.7317381792e+02 0.0000000000e+00 0.0000e+00 1.0000e+00
       21 -1    0    0  502  503 -0.0000000000e+00 -0.0000000000e+00 -3.1103169792e+02 3.1103169792e+02 0.0000000000e+00 0.0000e+00 1.0000e+00
       -6  2    1    2    0  503 -5.3185376682e+01 +8.6849719443e+01 -2.3005169456e+02 3.0601537748e+02 1.7421271776e+02 0.0000e+00 0.0000e+00
        6  2    1    2  501    0 +5.3185376682e+01 -8.6849719443e+01 +1.9219381455e+02 2.7819013835e+02 1.7343509640e+02 0.0000e+00 0.0000e+00
        5  1    4    4  501    0 +8.2386414818e+01 -1.9943731074e+01 +1.2285014376e+02 1.4933024334e+02 4.7000000000e+00 0.0000e+00 -1.0000e+00
       24  1    4    4    0    0 -2.9201038136e+01 -6.6905988369e+01 +6.9343670799e+01 1.2885989501e+02 8.0419002446e+01 0.0000e+00 1.0000e+00
       -5  1    3    3    0  503 +3.6200047231e+01 +4.6426599998e+01 -2.3377459026e+01 6.3517463720e+01 4.7000000000e+00 0.0000e+00 1.0000e+00
      -24  1    3    3    0    0 -8.9385423912e+01 +4.0423119445e+01 -2.0667423553e+02 2.4249791376e+02 8.0419002446e+01 0.0000e+00 1.0000e+00
<mgrwt>
<rscale>  2 0.20162806E+03</rscale>
<asrwt>0</asrwt>
<pdfrwt beam="1">  1       21 0.42026741E-01 0.20179601E+03</pdfrwt>
<pdfrwt beam="2">  1       21 0.47851030E-01 0.20179601E+03</pdfrwt>
<totfact> 0.22627095E+04</totfact>
</mgrwt>
<rwgt>
<wgt id='1'> +6.3061199e+02 </wgt>
<wgt id='2'> +5.1308422e+02 </wgt>
<wgt id='3'> +4.9283718e+02 </wgt>
<wgt id='4'> +6.4636400e+02 </wgt>
<wgt id='5'> +4.2029229e+02 </wgt>
<wgt id='6'> +5.8958757e+02 </wgt>
<wgt id='7'> +4.7341106e+02 </wgt>
<wgt id='8'> +4.5429895e+02 </wgt>
<wgt id='9'> +6.0521441e+02 </wgt>
<wgt id='10'> +3.8768218e+02 </wgt>
<wgt id='11'> +5.4338560e+02 </wgt>
<wgt id='12'> +4.3683303e+02 </wgt>
<wgt id='13'> +4.1930362e+02 </wgt>
<wgt id='14'> +5.5788865e+02 </wgt>
<wgt id='15'> +3.5822510e+02 </wgt>
<wgt id='16'> +5.1510406e+02 </wgt>
<wgt id='17'> +4.3031835e+02 </wgt>
<wgt id='18'> +4.1474018e+02 </wgt>
<wgt id='19'> +5.2634604e+02 </wgt>
<wgt id='20'> +3.5684177e+02 </wgt>
<wgt id='21'> +3.9704488e+02 </wgt>
<wgt id='22'> +3.8230888e+02 </wgt>
<wgt id='23'> +4.9283718e+02 </wgt>
<wgt id='24'> +3.2915474e+02 </wgt>
<wgt id='25'> +4.4385475e+02 </wgt>
<wgt id='26'> +3.6636727e+02 </wgt>
<wgt id='27'> +3.5285905e+02 </wgt>
<wgt id='28'> +4.5429895e+02 </wgt>
<wgt id='29'> +3.0414472e+02 </wgt>
<wgt id='30'> +4.3416359e+02 </wgt>
<wgt id='31'> +3.6644782e+02 </wgt>
<wgt id='32'> +3.5387003e+02 </wgt>
<wgt id='33'> +4.4293910e+02 </wgt>
<wgt id='34'> +3.0674428e+02 </wgt>
<wgt id='35'> +4.0591911e+02 </wgt>
<wgt id='36'> +3.3811301e+02 </wgt>
<wgt id='37'> +3.2619857e+02 </wgt>
<wgt id='38'> +4.1474018e+02 </wgt>
<wgt id='39'> +2.8294427e+02 </wgt>
<wgt id='40'> +3.7410999e+02 </wgt>
<wgt id='41'> +3.1198876e+02 </wgt>
<wgt id='42'> +3.0107100e+02 </wgt>
<wgt id='43'> +3.8230888e+02 </wgt>
<wgt id='44'> +2.6144544e+02 </wgt>
<wgt id='45'> +4.8159400e+02 </wgt>
<wgt id='46'> +4.8729230e+02 </wgt>
<wgt id='47'> +5.0286002e+02 </wgt>
<wgt id='48'> +4.8688579e+02 </wgt>
<wgt id='49'> +4.8057165e+02 </wgt>
<wgt id='50'> +5.8108677e+02 </wgt>
<wgt id='51'> +4.7233669e+02 </wgt>
<wgt id='52'> +4.8034689e+02 </wgt>
<wgt id='53'> +4.8316104e+02 </wgt>
<wgt id='54'> +4.8425987e+02 </wgt>
<wgt id='55'> +4.2656450e+02 </wgt>
<wgt id='56'> +4.4092258e+02 </wgt>
<wgt id='57'> +4.6744169e+02 </wgt>
<wgt id='58'> +4.7979390e+02 </wgt>
<wgt id='59'> +4.7965461e+02 </wgt>
<wgt id='60'> +4.6655186e+02 </wgt>
<wgt id='61'> +4.5878415e+02 </wgt>
<wgt id='62'> +4.7659058e+02 </wgt>
<wgt id='63'> +4.8192256e+02 </wgt>
<wgt id='64'> +4.7165355e+02 </wgt>
<wgt id='65'> +5.7119824e+02 </wgt>
<wgt id='66'> +4.7090760e+02 </wgt>
<wgt id='67'> +4.8597299e+02 </wgt>
<wgt id='68'> +5.2330024e+02 </wgt>
<wgt id='69'> +4.7660608e+02 </wgt>
<wgt id='70'> +4.7193550e+02 </wgt>
<wgt id='71'> +4.9073581e+02 </wgt>
<wgt id='72'> +4.5678148e+02 </wgt>
<wgt id='73'> +4.7259282e+02 </wgt>
<wgt id='74'> +5.0244134e+02 </wgt>
<wgt id='75'> +4.9422643e+02 </wgt>
<wgt id='76'> +4.6499331e+02 </wgt>
<wgt id='77'> +4.6695663e+02 </wgt>
<wgt id='78'> +4.7605426e+02 </wgt>
<wgt id='79'> +4.6450175e+02 </wgt>
<wgt id='80'> +4.7533344e+02 </wgt>
<wgt id='81'> +4.6989254e+02 </wgt>
<wgt id='82'> +4.9224056e+02 </wgt>
<wgt id='83'> +4.9540347e+02 </wgt>
<wgt id='84'> +5.3429860e+02 </wgt>
<wgt id='85'> +5.0859966e+02 </wgt>
<wgt id='86'> +4.8204420e+02 </wgt>
<wgt id='87'> +4.8377193e+02 </wgt>
<wgt id='88'> +4.9234084e+02 </wgt>
<wgt id='89'> +4.9677488e+02 </wgt>
<wgt id='90'> +4.8923050e+02 </wgt>
<wgt id='91'> +5.1234155e+02 </wgt>
<wgt id='92'> +4.3077059e+02 </wgt>
<wgt id='93'> +4.7638178e+02 </wgt>
<wgt id='94'> +4.7493375e+02 </wgt>
<wgt id='95'> +4.5786639e+02 </wgt>
<wgt id='96'> +5.3018795e+02 </wgt>
<wgt id='97'> +4.8613546e+02 </wgt>
<wgt id='98'> +4.5948988e+02 </wgt>
<wgt id='99'> +4.6531594e+02 </wgt>
<wgt id='100'> +4.6864493e+02 </wgt>
<wgt id='101'> +5.1801086e+02 </wgt>
<wgt id='102'> +4.7670409e+02 </wgt>
<wgt id='103'> +5.2984458e+02 </wgt>
<wgt id='104'> +4.8385505e+02 </wgt>
<wgt id='105'> +4.9675951e+02 </wgt>
<wgt id='106'> +4.3192623e+02 </wgt>
<wgt id='107'> +4.6586357e+02 </wgt>
<wgt id='108'> +4.2062861e+02 </wgt>
<wgt id='109'> +4.4541572e+02 </wgt>
<wgt id='110'> +4.8070228e+02 </wgt>
<wgt id='111'> +4.6494032e+02 </wgt>
<wgt id='112'> +4.5336143e+02 </wgt>
<wgt id='113'> +4.3590502e+02 </wgt>
<wgt id='114'> +4.7041976e+02 </wgt>
<wgt id='115'> +4.7285003e+02 </wgt>
<wgt id='116'> +4.8971558e+02 </wgt>
<wgt id='117'> +4.8494791e+02 </wgt>
<wgt id='118'> +5.0191075e+02 </wgt>
<wgt id='119'> +4.5883773e+02 </wgt>
<wgt id='120'> +4.7351203e+02 </wgt>
<wgt id='121'> +4.6426708e+02 </wgt>
<wgt id='122'> +4.7382857e+02 </wgt>
<wgt id='123'> +4.9051031e+02 </wgt>
<wgt id='124'> +5.2493204e+02 </wgt>
<wgt id='125'> +5.2483691e+02 </wgt>
<wgt id='126'> +5.0471106e+02 </wgt>
<wgt id='127'> +4.9965821e+02 </wgt>
<wgt id='128'> +4.4110682e+02 </wgt>
<wgt id='129'> +5.5064706e+02 </wgt>
<wgt id='130'> +4.8784262e+02 </wgt>
<wgt id='131'> +5.1701983e+02 </wgt>
<wgt id='132'> +4.8138986e+02 </wgt>
<wgt id='133'> +4.8418722e+02 </wgt>
<wgt id='134'> +4.5275911e+02 </wgt>
<wgt id='135'> +4.9463688e+02 </wgt>
<wgt id='136'> +4.6456825e+02 </wgt>
<wgt id='137'> +4.5504659e+02 </wgt>
<wgt id='138'> +4.4393040e+02 </wgt>
<wgt id='139'> +4.9445945e+02 </wgt>
<wgt id='140'> +5.0967042e+02 </wgt>
<wgt id='141'> +4.8254366e+02 </wgt>
<wgt id='142'> +4.7814800e+02 </wgt>
<wgt id='143'> +4.8005764e+02 </wgt>
<wgt id='144'> +4.7685392e+02 </wgt>
<wgt id='145'> +4.8309044e+02 </wgt>
</rwgt>
</event>
<event>
 8      1 +4.8159400e+02 1.81974700e+02 7.54677100e-03 1.16645400e-01
       21 -1    0    0  503  502 +0.0000000000e+00 +0.0000000000e+00 +1.1389737447e+02 1.1389737447e+02 0.0000000000e+00 0.0000e+00 -1.0000e+00
       21 -1    0    0  501  503 -0.0000000000e+00 -0.0000000000e+00 -8.8401408526e+02 8.8401408526e+02 0.0000000000e+00 0.0000e+00 -1.0000e+00
        6  2    1    2  501    0 +1.1471168481e+01 +4.7431981482e+01 -7.9426818380e+02 8.1434110010e+02 1.7293958177e+02 0.0000e+00 0.0000e+00
       -6  2    1    2    0  502 -1.1471168481e+01 -4.7431981482e+01 +2.4151473017e+01 1.8357035962e+02 1.7530944843e+02 0.0000e+00 0.0000e+00
        5  1    3    3  501    0 +5.7667391856e+01 +2.8629275139e+01 -5.2448628955e+02 5.2844405702e+02 4.7000000000e+00 0.0000e+00 -1.0000e+00
       24  1    3    3    0    0 -4.6196223375e+01 +1.8802706343e+01 -2.6978189425e+02 2.8589704308e+02 8.0419002446e+01 0.0000e+00 -1.0000e+00
       -5  1    4    4    0  502 +4.8226560105e+01 -5.4213761578e+01 -1.7661149634e+01 7.4826059968e+01 4.7000000000e+00 0.0000e+00 1.0000e+00
      -24  1    4    4    0    0 -5.9697728586e+01 +6.7817800963e+00 +4.1812622650e+01 1.0874429965e+02 8.0419002446e+01 0.0000e+00 0.0000e+00
<mgrwt>
<rscale>  2 0.18140149E+03</rscale>
<asrwt>0</asrwt>
<pdfrwt beam="1">  1       21 0.17522672E-01 0.18197468E+03</pdfrwt>
<pdfrwt beam="2">  1       21 0.13600217E+00 0.18197468E+03</pdfrwt>
<totfact> 0.11462813E+04</totfact>
</mgrwt>
<rwgt>
<wgt id='1'> +6.4515123e+02 </wgt>
<wgt id='2'> +5.3750462e+02 </wgt>
<wgt id='3'> +4.9943481e+02 </wgt>
<wgt id='4'> +6.7080941e+02 </wgt>
<wgt id='5'> +3.8586205e+02 </wgt>
<wgt id='6'> +5.9261030e+02 </wgt>
<wgt id='7'> +4.8868083e+02 </wgt>
<wgt id='8'> +4.5240380e+02 </wgt>
<wgt id='9'> +6.1701760e+02 </wgt>
<wgt id='10'> +3.4978506e+02 </wgt>
<wgt id='11'> +5.3634602e+02 </wgt>
<wgt id='12'> +4.4275959e+02 </wgt>
<wgt id='13'> +4.1018268e+02 </wgt>
<wgt id='14'> +5.5891401e+02 </wgt>
<wgt id='15'> +3.1803925e+02 </wgt>
<wgt id='16'> +5.2429220e+02 </wgt>
<wgt id='17'> +4.4664297e+02 </wgt>
<wgt id='18'> +4.1845826e+02 </wgt>
<wgt id='19'> +5.4297571e+02 </wgt>
<wgt id='20'> +3.2813962e+02 </wgt>
<wgt id='21'> +4.0607253e+02 </wgt>
<wgt id='22'> +3.7905269e+02 </wgt>
<wgt id='23'> +4.9943481e+02 </wgt>
<wgt id='24'> +2.9745951e+02 </wgt>
<wgt id='25'> +4.3586996e+02 </wgt>
<wgt id='26'> +3.6791397e+02 </wgt>
<wgt id='27'> +3.4367715e+02 </wgt>
<wgt id='28'> +4.5240380e+02 </wgt>
<wgt id='29'> +2.7046267e+02 </wgt>
<wgt id='30'> +4.4062009e+02 </wgt>
<wgt id='31'> +3.7887230e+02 </wgt>
<wgt id='32'> +3.5616945e+02 </wgt>
<wgt id='33'> +4.5493960e+02 </wgt>
<wgt id='34'> +2.8246448e+02 </wgt>
<wgt id='35'> +4.0473612e+02 </wgt>
<wgt id='36'> +3.4445774e+02 </wgt>
<wgt id='37'> +3.2262952e+02 </wgt>
<wgt id='38'> +4.1845826e+02 </wgt>
<wgt id='39'> +2.5605486e+02 </wgt>
<wgt id='40'> +3.6630920e+02 </wgt>
<wgt id='41'> +3.1208912e+02 </wgt>
<wgt id='42'> +2.9251974e+02 </wgt>
<wgt id='43'> +3.7905269e+02 </wgt>
<wgt id='44'> +2.3281582e+02 </wgt>
<wgt id='45'> +4.8159400e+02 </wgt>
<wgt id='46'> +4.9618257e+02 </wgt>
<wgt id='47'> +4.9752964e+02 </wgt>
<wgt id='48'> +4.8482569e+02 </wgt>
<wgt id='49'> +4.6348668e+02 </wgt>
<wgt id='50'> +5.8496495e+02 </wgt>
<wgt id='51'> +4.6323551e+02 </wgt>
<wgt id='52'> +4.7356884e+02 </wgt>
<wgt id='53'> +4.7517684e+02 </wgt>
<wgt id='54'> +4.9820091e+02 </wgt>
<wgt id='55'> +4.7827777e+02 </wgt>
<wgt id='56'> +4.4023226e+02 </wgt>
<wgt id='57'> +4.9392152e+02 </wgt>
<wgt id='58'> +4.5702451e+02 </wgt>
<wgt id='59'> +5.1137363e+02 </wgt>
<wgt id='60'> +4.8199958e+02 </wgt>
<wgt id='61'> +4.1879716e+02 </wgt>
<wgt id='62'> +4.6382682e+02 </wgt>
<wgt id='63'> +4.9089737e+02 </wgt>
<wgt id='64'> +4.7436828e+02 </wgt>
<wgt id='65'> +5.1232163e+02 </wgt>
<wgt id='66'> +4.7673337e+02 </wgt>
<wgt id='67'> +4.8387151e+02 </wgt>
<wgt id='68'> +5.4928215e+02 </wgt>
<wgt id='69'> +4.9481051e+02 </wgt>
<wgt id='70'> +4.8397752e+02 </wgt>
<wgt id='71'> +4.7559457e+02 </wgt>
<wgt id='72'> +4.5365680e+02 </wgt>
<wgt id='73'> +4.5345590e+02 </wgt>
<wgt id='74'> +5.2432236e+02 </wgt>
<wgt id='75'> +5.0060788e+02 </wgt>
<wgt id='76'> +4.8175219e+02 </wgt>
<wgt id='77'> +4.6877900e+02 </wgt>
<wgt id='78'> +4.4296937e+02 </wgt>
<wgt id='79'> +4.8709186e+02 </wgt>
<wgt id='80'> +4.5459777e+02 </wgt>
<wgt id='81'> +4.7732500e+02 </wgt>
<wgt id='82'> +4.6691572e+02 </wgt>
<wgt id='83'> +4.8465676e+02 </wgt>
<wgt id='84'> +5.0700200e+02 </wgt>
<wgt id='85'> +4.7391811e+02 </wgt>
<wgt id='86'> +4.9101491e+02 </wgt>
<wgt id='87'> +4.8354029e+02 </wgt>
<wgt id='88'> +4.7931646e+02 </wgt>
<wgt id='89'> +4.6722209e+02 </wgt>
<wgt id='90'> +4.8092938e+02 </wgt>
<wgt id='91'> +4.7086004e+02 </wgt>
<wgt id='92'> +4.3687576e+02 </wgt>
<wgt id='93'> +4.8188208e+02 </wgt>
<wgt id='94'> +4.5687627e+02 </wgt>
<wgt id='95'> +4.8666052e+02 </wgt>
<wgt id='96'> +5.1536256e+02 </wgt>
<wgt id='97'> +4.6280939e+02 </wgt>
<wgt id='98'> +4.8377611e+02 </wgt>
<wgt id='99'> +4.3781190e+02 </wgt>
<wgt id='100'> +4.1752612e+02 </wgt>
<wgt id='101'> +5.4877320e+02 </wgt>
<wgt id='102'> +5.1491388e+02 </wgt>
<wgt id='103'> +5.0490292e+02 </wgt>
<wgt id='104'> +4.9649378e+02 </wgt>
<wgt id='105'> +4.9581461e+02 </wgt>
<wgt id='106'> +4.4198549e+02 </wgt>
<wgt id='107'> +4.5405567e+02 </wgt>
<wgt id='108'> +4.2691036e+02 </wgt>
<wgt id='109'> +4.5840116e+02 </wgt>
<wgt id='110'> +4.6624161e+02 </wgt>
<wgt id='111'> +4.6821402e+02 </wgt>
<wgt id='112'> +4.6831792e+02 </wgt>
<wgt id='113'> +4.5864691e+02 </wgt>
<wgt id='114'> +4.7897812e+02 </wgt>
<wgt id='115'> +4.4857518e+02 </wgt>
<wgt id='116'> +5.1197570e+02 </wgt>
<wgt id='117'> +4.7287922e+02 </wgt>
<wgt id='118'> +5.0773185e+02 </wgt>
<wgt id='119'> +4.8598539e+02 </wgt>
<wgt id='120'> +4.7617215e+02 </wgt>
<wgt id='121'> +4.7461932e+02 </wgt>
<wgt id='122'> +4.7497645e+02 </wgt>
<wgt id='123'> +4.7961570e+02 </wgt>
<wgt id='124'> +5.4424764e+02 </wgt>
<wgt id='125'> +5.6313011e+02 </wgt>
<wgt id='126'> +4.9041288e+02 </wgt>
<wgt id='127'> +4.8594507e+02 </wgt>
<wgt id='128'> +4.4130437e+02 </wgt>
<wgt id='129'> +5.2955343e+02 </wgt>
<wgt id='130'> +4.7092724e+02 </wgt>
<wgt id='131'> +4.8422777e+02 </wgt>
<wgt id='132'> +5.1747011e+02 </wgt>
<wgt id='133'> +5.0780311e+02 </wgt>
<wgt id='134'> +4.7910093e+02 </wgt>
<wgt id='135'> +4.7958544e+02 </wgt>
<wgt id='136'> +5.2363233e+02 </wgt>
<wgt id='137'> +4.7234936e+02 </wgt>
<wgt id='138'> +4.6634063e+02 </wgt>
<wgt id='139'> +4.9775115e+02 </wgt>
<wgt id='140'> +4.8623837e+02 </wgt>
<wgt id='141'> +5.0648833e+02 </wgt>
<wgt id='142'> +4.1587149e+02 </wgt>
<wgt id='143'> +4.9390556e+02 </wgt>
<wgt id='144'> +4.5841227e+02 </wgt>
<wgt id='145'> +4.6639670e+02 </wgt>
</rwgt>
</event>
<event>
 8      1 +4.8159400e+02 2.28908300e+02 7.54677100e-03 1.12756200e-01
       21 -1    0    0  501  502 +0.0000000000e+00 +0.0000000000e+00 +1.9330418315e+02 1.9330418315e+02 0.0000000000e+00 0.0000e+00 1.0000e+00
       21 -1    0    0  502  503 -0.0000000000e+00 -0.0000000000e+00 -2.8407476107e+02 2.8407476107e+02 0.0000000000e+00 0.0000e+00 1.0000e+00
        6  2    1    2  501    0 +3.2152488401e+01 -1.4724220301e+02 +7.7154807097e+00 2.2818319927e+02 1.7115488579e+02 0.0000e+00 0.0000e+00
       -6  2    1    2    0  503 -3.2152488401e+01 +1.4724220301e+02 -9.8486058629e+01 2.4919574496e+02 1.7229325785e+02 0.0000e+00 0.0000e+00
        5  1    3    3  501    0 +2.6670409524e-01 -4.3409534637e+01 -6.2219624506e+01 7.6012041823e+01 4.7000000000e+00 0.0000e+00 -1.0000e+00
       24  1    3    3    0    0 +3.1885784306e+01 -1.0383266838e+02 +6.9935105216e+01 1.5217115745e+02 8.0419002446e+01 0.0000e+00 0.0000e+00
       -5  1    4    4    0  503 -3.3771998613e+01 +1.2926728431e+02 -9.9693398596e+01 1.6676762997e+02 4.7000000000e+00 0.0000e+00 1.0000e+00
      -24  1    4    4    0    0 +1.6195102113e+00 +1.7974918703e+01 +1.2073399671e+00 8.2428114984e+01 8.0419002446e+01 0.0000e+00 -1.0000e+00
<mgrwt>
<rscale>  2 0.22869411E+03</rscale>
<asrwt>0</asrwt>
<pdfrwt beam="1">  1       21 0.29739105E-01 0.22890831E+03</pdfrwt>
<pdfrwt beam="2">  1       21 0.43703810E-01 0.22890831E+03</pdfrwt>
<totfact> 0.53637797E+04</totfact>
</mgrwt>
<rwgt>
<wgt id='1'> +6.1876576e+02 </wgt>
<wgt id='2'> +5.1074626e+02 </wgt>
<wgt id='3'> +5.0724030e+02 </wgt>
<wgt id='4'> +6.5399138e+02 </wgt>
<wgt id='5'> +4.7754584e+02 </wgt>
<wgt id='6'> +5.8546714e+02 </wgt>
<wgt id='7'> +4.7750022e+02 </wgt>
<wgt id='8'> +4.7417311e+02 </wgt>
<wgt id='9'> +6.2167541e+02 </wgt>
<wgt id='10'> +4.4641616e+02 </wgt>
<wgt id='11'> +5.4730309e+02 </wgt>
<wgt id='12'> +4.4639788e+02 </wgt>
<wgt id='13'> +4.4329236e+02 </wgt>
<wgt id='14'> +5.8114814e+02 </wgt>
<wgt id='15'> +4.1739387e+02 </wgt>
<wgt id='16'> +5.0898481e+02 </wgt>
<wgt id='17'> +4.3006093e+02 </wgt>
<wgt id='18'> +4.2732434e+02 </wgt>
<wgt id='19'> +5.3360771e+02 </wgt>
<wgt id='20'> +4.0369925e+02 </wgt>
<wgt id='21'> +4.0206695e+02 </wgt>
<wgt id='22'> +3.9946689e+02 </wgt>
<wgt id='23'> +5.0724030e+02 </wgt>
<wgt id='24'> +3.7738339e+02 </wgt>
<wgt id='25'> +4.5020099e+02 </wgt>
<wgt id='26'> +3.7587801e+02 </wgt>
<wgt id='27'> +3.7345143e+02 </wgt>
<wgt id='28'> +4.7417311e+02 </wgt>
<wgt id='29'> +3.5284904e+02 </wgt>
<wgt id='30'> +4.3006537e+02 </wgt>
<wgt id='31'> +3.6707972e+02 </wgt>
<wgt id='32'> +3.6487174e+02 </wgt>
<wgt id='33'> +4.4953754e+02 </wgt>
<wgt id='34'> +3.4574372e+02 </wgt>
<wgt id='35'> +4.0692158e+02 </wgt>
<wgt id='36'> +3.4318537e+02 </wgt>
<wgt id='37'> +3.4108561e+02 </wgt>
<wgt id='38'> +4.2732434e+02 </wgt>
<wgt id='39'> +3.2320580e+02 </wgt>
<wgt id='40'> +3.8039614e+02 </wgt>
<wgt id='41'> +3.2083173e+02 </wgt>
<wgt id='42'> +3.1887225e+02 </wgt>
<wgt id='43'> +3.9946689e+02 </wgt>
<wgt id='44'> +3.0219363e+02 </wgt>
<wgt id='45'> +4.8159400e+02 </wgt>
<wgt id='46'> +4.8269274e+02 </wgt>
<wgt id='47'> +4.9974279e+02 </wgt>
<wgt id='48'> +4.8387303e+02 </wgt>
<wgt id='49'> +4.8058441e+02 </wgt>
<wgt id='50'> +5.6532541e+02 </wgt>
<wgt id='51'> +4.7238670e+02 </wgt>
<wgt id='52'> +4.7880644e+02 </wgt>
<wgt id='53'> +4.8687446e+02 </wgt>
<wgt id='54'> +4.8435336e+02 </wgt>
<wgt id='55'> +4.2955272e+02 </wgt>
<wgt id='56'> +4.4720366e+02 </wgt>
<wgt id='57'> +4.6814251e+02 </wgt>
<wgt id='58'> +4.8362259e+02 </wgt>
<wgt id='59'> +4.7485067e+02 </wgt>
<wgt id='60'> +4.6230925e+02 </wgt>
<wgt id='61'> +4.6810381e+02 </wgt>
<wgt id='62'> +4.7564036e+02 </wgt>
<wgt id='63'> +4.8208808e+02 </wgt>
<wgt id='64'> +4.7621745e+02 </wgt>
<wgt id='65'> +5.6887716e+02 </wgt>
<wgt id='66'> +4.7059206e+02 </wgt>
<wgt id='67'> +4.8597242e+02 </wgt>
<wgt id='68'> +5.1687693e+02 </wgt>
<wgt id='69'> +4.7162703e+02 </wgt>
<wgt id='70'> +4.7340234e+02 </wgt>
<wgt id='71'> +4.9055909e+02 </wgt>
<wgt id='72'> +4.6534381e+02 </wgt>
<wgt id='73'> +4.7465252e+02 </wgt>
<wgt id='74'> +4.9698539e+02 </wgt>
<wgt id='75'> +4.9283215e+02 </wgt>
<wgt id='76'> +4.6691063e+02 </wgt>
<wgt id='77'> +4.6440514e+02 </wgt>
<wgt id='78'> +4.8108120e+02 </wgt>
<wgt id='79'> +4.6243205e+02 </wgt>
<wgt id='80'> +4.7718430e+02 </wgt>
<wgt id='81'> +4.7226973e+02 </wgt>
<wgt id='82'> +4.9440715e+02 </wgt>
<wgt id='83'> +4.9259214e+02 </wgt>
<wgt id='84'> +5.3011957e+02 </wgt>
<wgt id='85'> +5.0721496e+02 </wgt>
<wgt id='86'> +4.7934104e+02 </wgt>
<wgt id='87'> +4.8190171e+02 </wgt>
<wgt id='88'> +4.9078210e+02 </wgt>
<wgt id='89'> +4.9332231e+02 </wgt>
<wgt id='90'> +4.8695678e+02 </wgt>
<wgt id='91'> +5.1244823e+02 </wgt>
<wgt id='92'> +4.4053891e+02 </wgt>
<wgt id='93'> +4.7394641e+02 </wgt>
<wgt id='94'> +4.7821478e+02 </wgt>
<wgt id='95'> +4.6085465e+02 </wgt>
<wgt id='96'> +5.2242090e+02 </wgt>
<wgt id='97'> +4.8854280e+02 </wgt>
<wgt id='98'> +4.5953763e+02 </wgt>
<wgt id='99'> +4.6717111e+02 </wgt>
<wgt id='100'> +4.7612067e+02 </wgt>
<wgt id='101'> +5.0750996e+02 </wgt>
<wgt id='102'> +4.6929015e+02 </wgt>
<wgt id='103'> +5.2378037e+02 </wgt>
<wgt id='104'> +4.8168130e+02 </wgt>
<wgt id='105'> +4.9948456e+02 </wgt>
<wgt id='106'> +4.4102878e+02 </wgt>
<wgt id='107'> +4.7390094e+02 </wgt>
<wgt id='108'> +4.3003891e+02 </wgt>
<wgt id='109'> +4.5117534e+02 </wgt>
<wgt id='110'> +4.8189534e+02 </wgt>
<wgt id='111'> +4.6827724e+02 </wgt>
<wgt id='112'> +4.5887420e+02 </wgt>
<wgt id='113'> +4.4124057e+02 </wgt>
<wgt id='114'> +4.7865511e+02 </wgt>
<wgt id='115'> +4.8165567e+02 </wgt>
<wgt id='116'> +4.8278939e+02 </wgt>
<wgt id='117'> +4.8779766e+02 </wgt>
<wgt id='118'> +4.9504706e+02 </wgt>
<wgt id='119'> +4.6212255e+02 </wgt>
<wgt id='120'> +4.7938562e+02 </wgt>
<wgt id='121'> +4.6701268e+02 </wgt>
<wgt id='122'> +4.7501527e+02 </wgt>
<wgt id='123'> +4.8857336e+02 </wgt>
<wgt id='124'> +5.1562382e+02 </wgt>
<wgt id='125'> +5.1663305e+02 </wgt>
<wgt id='126'> +5.0112366e+02 </wgt>
<wgt id='127'> +4.9640947e+02 </wgt>
<wgt id='128'> +4.4692585e+02 </wgt>
<wgt id='129'> +5.4556376e+02 </wgt>
<wgt id='130'> +4.8642101e+02 </wgt>
<wgt id='131'> +5.1584266e+02 </wgt>
<wgt id='132'> +4.7639588e+02 </wgt>
<wgt id='133'> +4.7925423e+02 </wgt>
<wgt id='134'> +4.5285676e+02 </wgt>
<wgt id='135'> +4.9389824e+02 </wgt>
<wgt id='136'> +4.6149200e+02 </wgt>
<wgt id='137'> +4.5432303e+02 </wgt>
<wgt id='138'> +4.3996247e+02 </wgt>
<wgt id='139'> +4.9119332e+02 </wgt>
<wgt id='140'> +5.1150336e+02 </wgt>
<wgt id='141'> +4.8136830e+02 </wgt>
<wgt id='142'> +4.8387322e+02 </wgt>
<wgt id='143'> +4.7739501e+02 </wgt>
<wgt id='144'> +4.8017679e+02 </wgt>
<wgt id='145'> +4.8272429e+02 </wgt>
</rwgt>
</event>
<event>
 8      1 +4.8159400e+02 1.96279400e+02 7.54677100e-03 1.15333700e-01
       21 -1    0    0  501  502 +0.0000000000e+00 +0.0000000000e+00 +2.7856171422e+02 2.7856171422e+02 0.0000000000e+00 0.0000e+00 1.0000e+00
       21 -1    0    0  502  503 -0.0000000000e+00 -0.0000000000e+00 -2.3717005081e+02 2.3717005081e+02 0.0000000000e+00 0.0000e+00 -1.0000e+00
       -6  2    1    2    0  503 -7.6450984995e+01 -5.0241599451e+01 -1.4687653544e+02 2.4514955614e+02 1.7365660595e+02 0.0000e+00 0.0000e+00
        6  2    1    2  501    0 +7.6450984995e+01 +5.0241599451e+01 +1.8826819885e+02 2.7058220888e+02 1.7146674793e+02 0.0000e+00 0.0000e+00
        5  1    4    4  501    0 +1.3987661109e+01 -4.8290247321e+01 +3.2706269419e+01 6.0161388854e+01 4.7000000000e+00 0.0000e+00 -1.0000e+00
       24  1    4    4    0    0 +6.2463323886e+01 +9.8531846772e+01 +1.5556192943e+02 2.1042082003e+02 8.0419002446e+01 0.0000e+00 0.0000e+00
       -5  1    3    3    0  503 -6.9772367180e+01 -8.0900976800e+01 -5.9731501201e+01 1.2248711567e+02 4.7000000000e+00 0.0000e+00 1.0000e+00
      -24  1    3    3    0    0 -6.6786178145e+00 +3.0659377349e+01 -8.7145034242e+01 1.2266244047e+02 8.0419002446e+01 0.0000e+00 0.0000e+00
<mgrwt>
<rscale>  2 0.19579387E+03</rscale>
<asrwt>0</asrwt>
<pdfrwt beam="1">  1       21 0.42855649E-01 0.19627936E+03</pdfrwt>
<pdfrwt beam="2">  1       21 0.36487700E-01 0.19627936E+03</pdfrwt>
<totfact> 0.37862283E+04</totfact>
</mgrwt>
<rwgt>
<wgt id='1'> +6.2515709e+02 </wgt>
<wgt id='2'> +5.1574618e+02 </wgt>
<wgt id='3'> +4.8449711e+02 </wgt>
<wgt id='4'> +6.2912824e+02 </wgt>
<wgt id='5'> +4.3679748e+02 </wgt>
<wgt id='6'> +5.9050028e+02 </wgt>
<wgt id='7'> +4.8036512e+02 </wgt>
<wgt id='8'> +4.5037093e+02 </wgt>
<wgt id='9'> +5.9452512e+02 </wgt>
<wgt id='10'> +4.0607474e+02 </wgt>
<wgt id='11'> +5.4885689e+02 </wgt>
<wgt id='12'> +4.4667270e+02 </wgt>
<wgt id='13'> +4.1886913e+02 </wgt>
<wgt id='14'> +5.5264897e+02 </wgt>
<wgt id='15'> +3.7783651e+02 </wgt>
<wgt id='16'> +5.0985904e+02 </wgt>
<wgt id='17'> +4.3175654e+02 </wgt>
<wgt id='18'> +4.0790331e+02 </wgt>
<wgt id='19'> +5.1269628e+02 </wgt>
<wgt id='20'> +3.6993884e+02 </wgt>
<wgt id='21'> +4.0213731e+02 </wgt>
<wgt id='22'> +3.7917211e+02 </wgt>
<wgt id='23'> +4.8449711e+02 </wgt>
<wgt id='24'> +3.4391869e+02 </wgt>
<wgt id='25'> +4.4763092e+02 </wgt>
<wgt id='26'> +3.7393172e+02 </wgt>
<wgt id='27'> +3.5265041e+02 </wgt>
<wgt id='28'> +4.5037093e+02 </wgt>
<wgt id='29'> +3.2000276e+02 </wgt>
<wgt id='30'> +4.2943827e+02 </wgt>
<wgt id='31'> +3.6733778e+02 </wgt>
<wgt id='32'> +3.4813613e+02 </wgt>
<wgt id='33'> +4.3164449e+02 </wgt>
<wgt id='34'> +3.1733475e+02 </wgt>
<wgt id='35'> +4.0563152e+02 </wgt>
<wgt id='36'> +3.4213779e+02 </wgt>
<wgt id='37'> +3.2361471e+02 </wgt>
<wgt id='38'> +4.0790331e+02 </wgt>
<wgt id='39'> +2.9501458e+02 </wgt>
<wgt id='40'> +3.7702548e+02 </wgt>
<wgt id='41'> +3.1814052e+02 </wgt>
<wgt id='42'> +3.0097905e+02 </wgt>
<wgt id='43'> +3.7917211e+02 </wgt>
<wgt id='44'> +2.7449942e+02 </wgt>
<wgt id='45'> +4.8159400e+02 </wgt>
<wgt id='46'> +4.8391372e+02 </wgt>
<wgt id='47'> +5.0107358e+02 </wgt>
<wgt id='48'> +4.8484979e+02 </wgt>
<wgt id='49'> +4.8093929e+02 </wgt>
<wgt id='50'> +5.7149735e+02 </wgt>
<wgt id='51'> +4.7238923e+02 </wgt>
<wgt id='52'> +4.7938326e+02 </wgt>
<wgt id='53'> +4.8604495e+02 </wgt>
<wgt id='54'> +4.8417710e+02 </wgt>
<wgt id='55'> +4.2677579e+02 </wgt>
<wgt id='56'> +4.4484795e+02 </wgt>
<wgt id='57'> +4.6713457e+02 </wgt>
<wgt id='58'> +4.8291127e+02 </wgt>
<wgt id='59'> +4.7551320e+02 </wgt>
<wgt id='60'> +4.6290562e+02 </wgt>
<wgt id='61'> +4.6634908e+02 </wgt>
<wgt id='62'> +4.7605680e+02 </wgt>
<wgt id='63'> +4.8195636e+02 </wgt>
<wgt id='64'> +4.7481709e+02 </wgt>
<wgt id='65'> +5.7208936e+02 </wgt>
<wgt id='66'> +4.7031385e+02 </wgt>
<wgt id='67'> +4.8603209e+02 </wgt>
<wgt id='68'> +5.1888519e+02 </wgt>
<wgt id='69'> +4.7266996e+02 </wgt>
<wgt id='70'> +4.7263044e+02 </wgt>
<wgt id='71'> +4.9087736e+02 </wgt>
<wgt id='72'> +4.6237090e+02 </wgt>
<wgt id='73'> +4.7429436e+02 </wgt>
<wgt id='74'> +4.9856296e+02 </wgt>
<wgt id='75'> +4.9337011e+02 </wgt>
<wgt id='76'> +4.6565647e+02 </wgt>
<wgt id='77'> +4.6480011e+02 </wgt>
<wgt id='78'> +4.8019785e+02 </wgt>
<wgt id='79'> +4.6229031e+02 </wgt>
<wgt id='80'> +4.7682697e+02 </wgt>
<wgt id='81'> +4.7125102e+02 </wgt>
<wgt id='82'> +4.9462504e+02 </wgt>
<wgt id='83'> +4.9387309e+02 </wgt>
<wgt id='84'> +5.3263405e+02 </wgt>
<wgt id='85'> +5.0887404e+02 </wgt>
<wgt id='86'> +4.8000124e+02 </wgt>
<wgt id='87'> +4.8248531e+02 </wgt>
<wgt id='88'> +4.9160599e+02 </wgt>
<wgt id='89'> +4.9513824e+02 </wgt>
<wgt id='90'> +4.8772913e+02 </wgt>
<wgt id='91'> +5.1358693e+02 </wgt>
<wgt id='92'> +4.3658214e+02 </wgt>
<wgt id='93'> +4.7448822e+02 </wgt>
<wgt id='94'> +4.7745618e+02 </wgt>
<wgt id='95'> +4.5897634e+02 </wgt>
<wgt id='96'> +5.2590224e+02 </wgt>
<wgt id='97'> +4.8831186e+02 </wgt>
<wgt id='98'> +4.5862877e+02 </wgt>
<wgt id='99'> +4.6692793e+02 </wgt>
<wgt id='100'> +4.7465887e+02 </wgt>
<wgt id='101'> +5.1053875e+02 </wgt>
<wgt id='102'> +4.7056958e+02 </wgt>
<wgt id='103'> +5.2686393e+02 </wgt>
<wgt id='104'> +4.8214872e+02 </wgt>
<wgt id='105'> +4.9890360e+02 </wgt>
<wgt id='106'> +4.3735784e+02 </wgt>
<wgt id='107'> +4.7163387e+02 </wgt>
<wgt id='108'> +4.2619327e+02 </wgt>
<wgt id='109'> +4.4873770e+02 </wgt>
<wgt id='110'> +4.8181195e+02 </wgt>
<wgt id='111'> +4.6691541e+02 </wgt>
<wgt id='112'> +4.5674849e+02 </wgt>
<wgt id='113'> +4.3858185e+02 </wgt>
<wgt id='114'> +4.7606821e+02 </wgt>
<wgt id='115'> +4.7945907e+02 </wgt>
<wgt id='116'> +4.8454414e+02 </wgt>
<wgt id='117'> +4.8733746e+02 </wgt>
<wgt id='118'> +4.9721873e+02 </wgt>
<wgt id='119'> +4.6038573e+02 </wgt>
<wgt id='120'> +4.7773600e+02 </wgt>
<wgt id='121'> +4.6580343e+02 </wgt>
<wgt id='122'> +4.7445792e+02 </wgt>
<wgt id='123'> +4.8945526e+02 </wgt>
<wgt id='124'> +5.1863100e+02 </wgt>
<wgt id='125'> +5.1905663e+02 </wgt>
<wgt id='126'> +5.0279266e+02 </wgt>
<wgt id='127'> +4.9791190e+02 </wgt>
<wgt id='128'> +4.4468996e+02 </wgt>
<wgt id='129'> +5.4857227e+02 </wgt>
<wgt id='130'> +4.8726909e+02 </wgt>
<wgt id='131'> +5.1740033e+02 </wgt>
<wgt id='132'> +4.7693896e+02 </wgt>
<wgt id='133'> +4.8028788e+02 </wgt>
<wgt id='134'> +4.5173890e+02 </wgt>
<wgt id='135'> +4.9468626e+02 </wgt>
<wgt id='136'> +4.6093546e+02 </wgt>
<wgt id='137'> +4.5375753e+02 </wgt>
<wgt id='138'> +4.4005621e+02 </wgt>
<wgt id='139'> +4.9237501e+02 </wgt>
<wgt id='140'> +5.1198744e+02 </wgt>
<wgt id='141'> +4.8132348e+02 </wgt>
<wgt id='142'> +4.8326694e+02 </wgt>
<wgt id='143'> +4.7769514e+02 </wgt>
<wgt id='144'> +4.7941935e+02 </wgt>
<wgt id='145'> +4.8299347e+02 </wgt>
</rwgt>
</event>
<event>
 8      1 +4.8159400e+02 1.99543700e+02 7.54677100e-03 1.15031800e-01
       21 -1    0    0  501  502 +0.0000000000e+00 +0.0000000000e+00 +4.9434221880e+02 4.9434221880e+02 0.0000000000e+00 0.0000e+00 1.0000e+00
       21 -1    0    0  502  503 -0.0000000000e+00 -0.0000000000e+00 -8.0258897012e+01 8.0258897012e+01 0.0000000000e+00 0.0000e+00 1.0000e+00
        6  2    1    2  501    0 -8.8609585885e+01 -4.3730577942e+01 +2.1652268321e+02 2.9444820481e+02 1.7335988813e+02 0.0000e+00 0.0000e+00
       -6  2    1    2    0  503 +8.8609585885e+01 +4.3730577942e+01 +1.9756063858e+02 2.8015291100e+02 1.7231200037e+02 0.0000e+00 0.0000e+00
        5  1    3    3  501    0 +1.7244862066e+01 +2.2914311430e+01 +1.0395250178e+02 1.0793823958e+02 4.7000000000e+00 0.0000e+00 -1.0000e+00
       24  1    3    3    0    0 -1.0585444795e+02 -6.6644889373e+01 +1.1257018143e+02 1.8650996523e+02 8.0419002446e+01 0.0000e+00 0.0000e+00
       -5  1    4    4    0  503 -1.5841334526e+00 +7.3900031709e+01 +7.5562240079e+01 1.0580863051e+02 4.7000000000e+00 0.0000e+00 1.0000e+00
      -24  1    4    4    0    0 +9.0193719338e+01 -3.0169453767e+01 +1.2199839850e+02 1.7434428049e+02 8.0419002446e+01 0.0000e+00 1.0000e+00
<mgrwt>
<rscale>  2 0.19931584E+03</rscale>
<asrwt>0</asrwt>
<pdfrwt beam="1">  1       21 0.76052647E-01 0.19954366E+03</pdfrwt>
<pdfrwt beam="2">  1       21 0.12347523E-01 0.19954366E+03</pdfrwt>
<totfact> 0.85673218E+04</totfact>
</mgrwt>
<rwgt>
<wgt id='1'> +6.1653329e+02 </wgt>
<wgt id='2'> +5.0466132e+02 </wgt>
<wgt id='3'> +4.9132355e+02 </wgt>
<wgt id='4'> +6.2972877e+02 </wgt>
<wgt id='5'> +4.8174867e+02 </wgt>
<wgt id='6'> +5.8995316e+02 </wgt>
<wgt id='7'> +4.7515784e+02 </wgt>
<wgt id='8'> +4.6216607e+02 </wgt>
<wgt id='9'> +6.0358119e+02 </wgt>
<wgt id='10'> +4.5296524e+02 </wgt>
<wgt id='11'> +5.5470023e+02 </wgt>
<wgt id='12'> +4.4649284e+02 </wgt>
<wgt id='13'> +4.3426487e+02 </wgt>
<wgt id='14'> +5.6776181e+02 </wgt>
<wgt id='15'> +4.2560817e+02 </wgt>
<wgt id='16'> +5.0329205e+02 </wgt>
<wgt id='17'> +4.2356596e+02 </wgt>
<wgt id='18'> +4.1337067e+02 </wgt>
<wgt id='19'> +5.1260804e+02 </wgt>
<wgt id='20'> +4.0593484e+02 </wgt>
<wgt id='21'> +3.9880348e+02 </wgt>
<wgt id='22'> +3.8883929e+02 </wgt>
<wgt id='23'> +4.9132355e+02 </wgt>
<wgt id='24'> +3.8168112e+02 </wgt>
<wgt id='25'> +4.5281612e+02 </wgt>
<wgt id='26'> +3.7474473e+02 </wgt>
<wgt id='27'> +3.6536486e+02 </wgt>
<wgt id='28'> +4.6216607e+02 </wgt>
<wgt id='29'> +3.5862929e+02 </wgt>
<wgt id='30'> +4.2409442e+02 </wgt>
<wgt id='31'> +3.6083953e+02 </wgt>
<wgt id='32'> +3.5265012e+02 </wgt>
<wgt id='33'> +4.3127819e+02 </wgt>
<wgt id='34'> +3.4666278e+02 </wgt>
<wgt id='35'> +4.0581076e+02 </wgt>
<wgt id='36'> +3.3974415e+02 </wgt>
<wgt id='37'> +3.3172219e+02 </wgt>
<wgt id='38'> +4.1337067e+02 </wgt>
<wgt id='39'> +3.2595043e+02 </wgt>
<wgt id='40'> +3.8156135e+02 </wgt>
<wgt id='41'> +3.1924830e+02 </wgt>
<wgt id='42'> +3.1169595e+02 </wgt>
<wgt id='43'> +3.8883929e+02 </wgt>
<wgt id='44'> +3.0626448e+02 </wgt>
<wgt id='45'> +4.8159400e+02 </wgt>
<wgt id='46'> +4.8589502e+02 </wgt>
<wgt id='47'> +4.9580283e+02 </wgt>
<wgt id='48'> +4.8356408e+02 </wgt>
<wgt id='49'> +4.7774370e+02 </wgt>
<wgt id='50'> +5.6034181e+02 </wgt>
<wgt id='51'> +4.7160405e+02 </wgt>
<wgt id='52'> +4.8049702e+02 </wgt>
<wgt id='53'> +4.8107746e+02 </wgt>
<wgt id='54'> +4.8622781e+02 </wgt>
<wgt id='55'> +4.4572877e+02 </wgt>
<wgt id='56'> +4.4609182e+02 </wgt>
<wgt id='57'> +4.7688873e+02 </wgt>
<wgt id='58'> +4.8006444e+02 </wgt>
<wgt id='59'> +4.8712197e+02 </wgt>
<wgt id='60'> +4.7286102e+02 </wgt>
<wgt id='61'> +4.4552076e+02 </wgt>
<wgt id='62'> +4.7411957e+02 </wgt>
<wgt id='63'> +4.8265210e+02 </wgt>
<wgt id='64'> +4.7523562e+02 </wgt>
<wgt id='65'> +5.4626210e+02 </wgt>
<wgt id='66'> +4.7180594e+02 </wgt>
<wgt id='67'> +4.8513128e+02 </wgt>
<wgt id='68'> +5.2143143e+02 </wgt>
<wgt id='69'> +4.7341462e+02 </wgt>
<wgt id='70'> +4.7514471e+02 </wgt>
<wgt id='71'> +4.8871983e+02 </wgt>
<wgt id='72'> +4.6923261e+02 </wgt>
<wgt id='73'> +4.7237944e+02 </wgt>
<wgt id='74'> +5.0083956e+02 </wgt>
<wgt id='75'> +4.9137036e+02 </wgt>
<wgt id='76'> +4.7260554e+02 </wgt>
<wgt id='77'> +4.6882896e+02 </wgt>
<wgt id='78'> +4.7212112e+02 </wgt>
<wgt id='79'> +4.6954598e+02 </wgt>
<wgt id='80'> +4.7357898e+02 </wgt>
<wgt id='81'> +4.7357022e+02 </wgt>
<wgt id='82'> +4.8447121e+02 </wgt>
<wgt id='83'> +4.8778672e+02 </wgt>
<wgt id='84'> +5.1971162e+02 </wgt>
<wgt id='85'> +4.9740375e+02 </wgt>
<wgt id='86'> +4.8029390e+02 </wgt>
<wgt id='87'> +4.8311221e+02 </wgt>
<wgt id='88'> +4.8521376e+02 </wgt>
<wgt id='89'> +4.9021884e+02 </wgt>
<wgt id='90'> +4.8935869e+02 </wgt>
<wgt id='91'> +5.0205557e+02 </wgt>
<wgt id='92'> +4.4613941e+02 </wgt>
<wgt id='93'> +4.7618226e+02 </wgt>
<wgt id='94'> +4.7512884e+02 </wgt>
<wgt id='95'> +4.7017350e+02 </wgt>
<wgt id='96'> +5.1442463e+02 </wgt>
<wgt id='97'> +4.8303094e+02 </wgt>
<wgt id='98'> +4.6560418e+02 </wgt>
<wgt id='99'> +4.6377376e+02 </wgt>
<wgt id='100'> +4.6631044e+02 </wgt>
<wgt id='101'> +5.1575147e+02 </wgt>
<wgt id='102'> +4.8004802e+02 </wgt>
<wgt id='103'> +5.1849077e+02 </wgt>
<wgt id='104'> +4.8200765e+02 </wgt>
<wgt id='105'> +4.9924660e+02 </wgt>
<wgt id='106'> +4.4499371e+02 </wgt>
<wgt id='107'> +4.6955630e+02 </wgt>
<wgt id='108'> +4.3181133e+02 </wgt>
<wgt id='109'> +4.5525318e+02 </wgt>
<wgt id='110'> +4.8084956e+02 </wgt>
<wgt id='111'> +4.6975831e+02 </wgt>
<wgt id='112'> +4.5890425e+02 </wgt>
<wgt id='113'> +4.4687112e+02 </wgt>
<wgt id='114'> +4.7681617e+02 </wgt>
<wgt id='115'> +4.6900768e+02 </wgt>
<wgt id='116'> +4.8760689e+02 </wgt>
<wgt id='117'> +4.8159972e+02 </wgt>
<wgt id='118'> +4.9739378e+02 </wgt>
<wgt id='119'> +4.6791945e+02 </wgt>
<wgt id='120'> +4.7338764e+02 </wgt>
<wgt id='121'> +4.7188252e+02 </wgt>
<wgt id='122'> +4.7662707e+02 </wgt>
<wgt id='123'> +4.8489397e+02 </wgt>
<wgt id='124'> +5.2018606e+02 </wgt>
<wgt id='125'> +5.2315825e+02 </wgt>
<wgt id='126'> +4.9649006e+02 </wgt>
<wgt id='127'> +4.9393855e+02 </wgt>
<wgt id='128'> +4.4348271e+02 </wgt>
<wgt id='129'> +5.3954333e+02 </wgt>
<wgt id='130'> +4.7886788e+02 </wgt>
<wgt id='131'> +5.0743858e+02 </wgt>
<wgt id='132'> +4.9148821e+02 </wgt>
<wgt id='133'> +4.8551358e+02 </wgt>
<wgt id='134'> +4.6226231e+02 </wgt>
<wgt id='135'> +4.9075193e+02 </wgt>
<wgt id='136'> +4.7993189e+02 </wgt>
<wgt id='137'> +4.5761568e+02 </wgt>
<wgt id='138'> +4.4421320e+02 </wgt>
<wgt id='139'> +4.9289468e+02 </wgt>
<wgt id='140'> +5.0301693e+02 </wgt>
<wgt id='141'> +4.8411680e+02 </wgt>
<wgt id='142'> +4.6956280e+02 </wgt>
<wgt id='143'> +4.8504214e+02 </wgt>
<wgt id='144'> +4.7826021e+02 </wgt>
<wgt id='145'> +4.8085377e+02 </wgt>
</rwgt>
</event>
<event>
 8      1 +4.8159400e+02 3.04315700e+02 7.54677100e-03 1.08340900e-01
       21 -1    0    0  503  502 +0.0000000000e+00 +0.0000000000e+00 +1.3816092351e+02 1.3816092351e+02 0.0000000000e+00 0.0000e+00 -1.0000e+00
       21 -1    0    0  501  503 -0.0000000000e+00 -0.0000000000e+00 -9.2441099550e+02 9.2441099550e+02 0.0000000000e+00 0.0000e+00 1.0000e+00
        6  2    1    2  501    0 +7.8194509444e+01 +2.3470315470e+02 -6.7581597677e+02 7.4117155981e+02 1.7722328991e+02 0.0000e+00 0.0000e+00
       -6  2    1    2    0  502 -7.8194509444e+01 -2.3470315470e+02 -1.1043409522e+02 3.2140035919e+02 1.7292353619e+02 0.0000e+00 0.0000e+00
        5  1    3    3  501    0 +6.8920584652e+01 +1.7702746739e+02 -3.2431329357e+02 3.7588558576e+02 4.7000000000e+00 0.0000e+00 -1.0000e+00
       24  1    3    3    0    0 +9.2739247927e+00 +5.7675687315e+01 -3.5150268320e+02 3.6528597405e+02 8.0419002446e+01 0.0000e+00 0.0000e+00
       -5  1    4    4    0  502 +2.9276713130e+01 -1.1611639546e+02 -6.6194442889e+01 1.3690850045e+02 4.7000000000e+00 0.0000e+00 1.0000e+00
      -24  1    4    4    0    0 -1.0747122257e+02 -1.1858675925e+02 -4.4239652335e+01 1.8449185875e+02 8.0419002446e+01 0.0000e+00 0.0000e+00
<mgrwt>
<rscale>  2 0.30369284E+03</rscale>
<asrwt>0</asrwt>
<pdfrwt beam="1">  1       21 0.21255526E-01 0.30431570E+03</pdfrwt>
<pdfrwt beam="2">  1       21 0.14221708E+00 0.30431570E+03</pdfrwt>
<totfact> 0.65853470E+03</totfact>
</mgrwt>
<rwgt>
<wgt id='1'> +6.4174547e+02 </wgt>
<wgt id='2'> +5.0230926e+02 </wgt>
<wgt id='3'> +4.8793463e+02 </wgt>
<wgt id='4'> +6.5073637e+02 </wgt>
<wgt id='5'> +4.5154305e+02 </wgt>
<wgt id='6'> +5.7701991e+02 </wgt>
<wgt id='7'> +4.5139329e+02 </wgt>
<wgt id='8'> +4.3863882e+02 </wgt>
<wgt id='9'> +5.8553205e+02 </wgt>
<wgt id='10'> +4.0633934e+02 </wgt>
<wgt id='11'> +5.1881457e+02 </wgt>
<wgt id='12'> +4.0714850e+02 </wgt>
<wgt id='13'> +3.9580242e+02 </wgt>
<wgt id='14'> +5.2637601e+02 </wgt>
<wgt id='15'> +3.6705572e+02 </wgt>
<wgt id='16'> +5.3561543e+02 </wgt>
<wgt id='17'> +4.2595349e+02 </wgt>
<wgt id='18'> +4.1434588e+02 </wgt>
<wgt id='19'> +5.4227059e+02 </wgt>
<wgt id='20'> +3.8485156e+02 </wgt>
<wgt id='21'> +3.8277723e+02 </wgt>
<wgt id='22'> +3.7248470e+02 </wgt>
<wgt id='23'> +4.8793463e+02 </wgt>
<wgt id='24'> +3.4632430e+02 </wgt>
<wgt id='25'> +4.3301450e+02 </wgt>
<wgt id='26'> +3.4525807e+02 </wgt>
<wgt id='27'> +3.3610876e+02 </wgt>
<wgt id='28'> +4.3863882e+02 </wgt>
<wgt id='29'> +3.1284275e+02 </wgt>
<wgt id='30'> +4.5511187e+02 </wgt>
<wgt id='31'> +3.6577108e+02 </wgt>
<wgt id='32'> +3.5622978e+02 </wgt>
<wgt id='33'> +4.6048706e+02 </wgt>
<wgt id='34'> +3.3191326e+02 </wgt>
<wgt id='35'> +4.0920992e+02 </wgt>
<wgt id='36'> +3.2869514e+02 </wgt>
<wgt id='37'> +3.2024004e+02 </wgt>
<wgt id='38'> +4.1434588e+02 </wgt>
<wgt id='39'> +2.9868562e+02 </wgt>
<wgt id='40'> +3.6793197e+02 </wgt>
<wgt id='41'> +2.9647701e+02 </wgt>
<wgt id='42'> +2.8896618e+02 </wgt>
<wgt id='43'> +3.7248470e+02 </wgt>
<wgt id='44'> +2.6980962e+02 </wgt>
<wgt id='45'> +4.8159400e+02 </wgt>
<wgt id='46'> +4.9792093e+02 </wgt>
<wgt id='47'> +5.0028191e+02 </wgt>
<wgt id='48'> +4.8592776e+02 </wgt>
<wgt id='49'> +4.6029441e+02 </wgt>
<wgt id='50'> +5.8826257e+02 </wgt>
<wgt id='51'> +4.6216085e+02 </wgt>
<wgt id='52'> +4.6943208e+02 </wgt>
<wgt id='53'> +4.7615289e+02 </wgt>
<wgt id='54'> +5.0004993e+02 </wgt>
<wgt id='55'> +4.8564434e+02 </wgt>
<wgt id='56'> +4.4188599e+02 </wgt>
<wgt id='57'> +4.9549615e+02 </wgt>
<wgt id='58'> +4.5115982e+02 </wgt>
<wgt id='59'> +5.1361752e+02 </wgt>
<wgt id='60'> +4.8182736e+02 </wgt>
<wgt id='61'> +4.2141784e+02 </wgt>
<wgt id='62'> +4.6140494e+02 </wgt>
<wgt id='63'> +4.9330449e+02 </wgt>
<wgt id='64'> +4.7347356e+02 </wgt>
<wgt id='65'> +5.0279927e+02 </wgt>
<wgt id='66'> +4.7970894e+02 </wgt>
<wgt id='67'> +4.8395338e+02 </wgt>
<wgt id='68'> +5.5659127e+02 </wgt>
<wgt id='69'> +5.0339805e+02 </wgt>
<wgt id='70'> +4.8928756e+02 </wgt>
<wgt id='71'> +4.7149085e+02 </wgt>
<wgt id='72'> +4.4660392e+02 </wgt>
<wgt id='73'> +4.4918738e+02 </wgt>
<wgt id='74'> +5.3054282e+02 </wgt>
<wgt id='75'> +5.0512899e+02 </wgt>
<wgt id='76'> +4.8274599e+02 </wgt>
<wgt id='77'> +4.6748962e+02 </wgt>
<wgt id='78'> +4.3749571e+02 </wgt>
<wgt id='79'> +4.9232166e+02 </wgt>
<wgt id='80'> +4.4997656e+02 </wgt>
<wgt id='81'> +4.7978237e+02 </wgt>
<wgt id='82'> +4.6707327e+02 </wgt>
<wgt id='83'> +4.8549972e+02 </wgt>
<wgt id='84'> +5.0344956e+02 </wgt>
<wgt id='85'> +4.6822416e+02 </wgt>
<wgt id='86'> +4.9502190e+02 </wgt>
<wgt id='87'> +4.8254776e+02 </wgt>
<wgt id='88'> +4.8032288e+02 </wgt>
<wgt id='89'> +4.5854411e+02 </wgt>
<wgt id='90'> +4.7583326e+02 </wgt>
<wgt id='91'> +4.6313276e+02 </wgt>
<wgt id='92'> +4.3467441e+02 </wgt>
<wgt id='93'> +4.8378761e+02 </wgt>
<wgt id='94'> +4.5293597e+02 </wgt>
<wgt id='95'> +4.8746299e+02 </wgt>
<wgt id='96'> +5.1685968e+02 </wgt>
<wgt id='97'> +4.5794672e+02 </wgt>
<wgt id='98'> +4.8994636e+02 </wgt>
<wgt id='99'> +4.3196564e+02 </wgt>
<wgt id='100'> +4.0737909e+02 </wgt>
<wgt id='101'> +5.5412868e+02 </wgt>
<wgt id='102'> +5.2266825e+02 </wgt>
<wgt id='103'> +4.9862331e+02 </wgt>
<wgt id='104'> +5.0200971e+02 </wgt>
<wgt id='105'> +4.9297500e+02 </wgt>
<wgt id='106'> +4.4249082e+02 </wgt>
<wgt id='107'> +4.5257592e+02 </wgt>
<wgt id='108'> +4.2828347e+02 </wgt>
<wgt id='109'> +4.5894967e+02 </wgt>
<wgt id='110'> +4.6092873e+02 </wgt>
<wgt id='111'> +4.6709107e+02 </wgt>
<wgt id='112'> +4.7194539e+02 </wgt>
<wgt id='113'> +4.6418388e+02 </wgt>
<wgt id='114'> +4.7825465e+02 </wgt>
<wgt id='115'> +4.4718704e+02 </wgt>
<wgt id='116'> +5.1822654e+02 </wgt>
<wgt id='117'> +4.7240538e+02 </wgt>
<wgt id='118'> +5.0837137e+02 </wgt>
<wgt id='119'> +4.9011105e+02 </wgt>
<wgt id='120'> +4.7662128e+02 </wgt>
<wgt id='121'> +4.7245330e+02 </wgt>
<wgt id='122'> +4.7369724e+02 </wgt>
<wgt id='123'> +4.7824364e+02 </wgt>
<wgt id='124'> +5.4671206e+02 </wgt>
<wgt id='125'> +5.7167856e+02 </wgt>
<wgt id='126'> +4.8917259e+02 </wgt>
<wgt id='127'> +4.8278909e+02 </wgt>
<wgt id='128'> +4.4525372e+02 </wgt>
<wgt id='129'> +5.2332227e+02 </wgt>
<wgt id='130'> +4.7250500e+02 </wgt>
<wgt id='131'> +4.7733980e+02 </wgt>
<wgt id='132'> +5.1854057e+02 </wgt>
<wgt id='133'> +5.1227037e+02 </wgt>
<wgt id='134'> +4.8336367e+02 </wgt>
<wgt id='135'> +4.7623641e+02 </wgt>
<wgt id='136'> +5.2981616e+02 </wgt>
<wgt id='137'> +4.7974050e+02 </wgt>
<wgt id='138'> +4.7604593e+02 </wgt>
<wgt id='139'> +4.9782904e+02 </wgt>
<wgt id='140'> +4.8221056e+02 </wgt>
<wgt id='141'> +5.1391473e+02 </wgt>
<wgt id='142'> +4.0291733e+02 </wgt>
<wgt id='143'> +4.9386636e+02 </wgt>
<wgt id='144'> +4.5310561e+02 </wgt>
<wgt id='145'> +4.6347498e+02 </wgt>
</rwgt>
</event>
<event>
 8      1 +4.8159400e+02 1.93068900e+02 7.54677100e-03 1.15573700e-01
       21 -1    0    0  501  502 +0.0000000000e+00 +0.0000000000e+00 +1.0396186550e+02 1.0396186550e+02 0.0000000000e+00 0.0000e+00 -1.0000e+00
       21 -1    0    0  502  503 -0.0000000000e+00 -0.0000000000e+00 -5.4109915543e+02 5.4109915543e+02 0.0000000000e+00 0.0000e+00 -1.0000e+00
       -6  2    1    2    0  503 +8.4639234973e+01 -1.3414412242e+01 -4.0594343312e+02 4.4948839114e+02 1.7293350260e+02 0.0000e+00 0.0000e+00
        6  2    1    2  501    0 -8.4639234973e+01 +1.3414412242e+01 -3.1193856802e+01 1.9557262979e+02 1.7300823757e+02 0.0000e+00 0.0000e+00
        5  1    4    4  501    0 -5.5764624438e+01 -2.3994525077e+01 -7.1540683773e+01 9.3944611379e+01 4.7000000000e+00 0.0000e+00 -1.0000e+00
       24  1    4    4    0    0 -2.8874610535e+01 +3.7408937319e+01 +4.0346826971e+01 1.0162801841e+02 8.0419002446e+01 0.0000e+00 -1.0000e+00
       -5  1    3    3    0  503 +3.7620041058e+01 -5.1659245222e+01 -5.5202149844e+01 8.4577257306e+01 4.7000000000e+00 0.0000e+00 1.0000e+00
      -24  1    3    3    0    0 +4.7019193915e+01 +3.8244832980e+01 -3.5074128328e+02 3.6491113383e+02 8.0419002446e+01 0.0000e+00 0.0000e+00
<mgrwt>
<rscale>  2 0.19305215E+03</rscale>
<asrwt>0</asrwt>
<pdfrwt beam="1">  1       21 0.15994133E-01 0.19306889E+03</pdfrwt>
<pdfrwt beam="2">  1       21 0.83246024E-01 0.19306889E+03</pdfrwt>
<totfact> 0.43841098E+04</totfact>
</mgrwt>
<rwgt>
<wgt id='1'> +6.2481864e+02 </wgt>
<wgt id='2'> +5.5416135e+02 </wgt>
<wgt id='3'> +5.1656233e+02 </wgt>
<wgt id='4'> +6.7325053e+02 </wgt>
<wgt id='5'> +4.4715775e+02 </wgt>
<wgt id='6'> +5.9091407e+02 </wgt>
<wgt id='7'> +5.1924811e+02 </wgt>
<wgt id='8'> +4.8153798e+02 </wgt>
<wgt id='9'> +6.3918798e+02 </wgt>
<wgt id='10'> +4.1581007e+02 </wgt>
<wgt id='11'> +5.4950345e+02 </wgt>
<wgt id='12'> +4.8285831e+02 </wgt>
<wgt id='13'> +4.4783459e+02 </wgt>
<wgt id='14'> +5.9584928e+02 </wgt>
<wgt id='15'> +3.8686211e+02 </wgt>
<wgt id='16'> +5.0922617e+02 </wgt>
<wgt id='17'> +4.5925421e+02 </wgt>
<wgt id='18'> +4.3209574e+02 </wgt>
<wgt id='19'> +5.4409012e+02 </wgt>
<wgt id='20'> +3.7810357e+02 </wgt>
<wgt id='21'> +4.3032031e+02 </wgt>
<wgt id='22'> +4.0279846e+02 </wgt>
<wgt id='23'> +5.1656233e+02 </wgt>
<wgt id='24'> +3.5159689e+02 </wgt>
<wgt id='25'> +4.4784441e+02 </wgt>
<wgt id='26'> +4.0016272e+02 </wgt>
<wgt id='27'> +3.7460613e+02 </wgt>
<wgt id='28'> +4.8153798e+02 </wgt>
<wgt id='29'> +3.2711934e+02 </wgt>
<wgt id='30'> +4.2874321e+02 </wgt>
<wgt id='31'> +3.8917060e+02 </wgt>
<wgt id='32'> +3.6749273e+02 </wgt>
<wgt id='33'> +4.5512227e+02 </wgt>
<wgt id='34'> +3.2389030e+02 </wgt>
<wgt id='35'> +4.0547829e+02 </wgt>
<wgt id='36'> +3.6465210e+02 </wgt>
<wgt id='37'> +3.4257571e+02 </wgt>
<wgt id='38'> +4.3209574e+02 </wgt>
<wgt id='39'> +3.0118419e+02 </wgt>
<wgt id='40'> +3.7706281e+02 </wgt>
<wgt id='41'> +3.3909665e+02 </wgt>
<wgt id='42'> +3.1859844e+02 </wgt>
<wgt id='43'> +4.0279846e+02 </wgt>
<wgt id='44'> +2.8021629e+02 </wgt>
<wgt id='45'> +4.8159400e+02 </wgt>
<wgt id='46'> +4.8843085e+02 </wgt>
<wgt id='47'> +4.9766923e+02 </wgt>
<wgt id='48'> +4.8493361e+02 </wgt>
<wgt id='49'> +4.7657028e+02 </wgt>
<wgt id='50'> +5.7027352e+02 </wgt>
<wgt id='51'> +4.7082324e+02 </wgt>
<wgt id='52'> +4.8047766e+02 </wgt>
<wgt id='53'> +4.7961792e+02 </wgt>
<wgt id='54'> +4.8720673e+02 </wgt>
<wgt id='55'> +4.4576309e+02 </wgt>
<wgt id='56'> +4.4226043e+02 </wgt>
<wgt id='57'> +4.7772443e+02 </wgt>
<wgt id='58'> +4.7651073e+02 </wgt>
<wgt id='59'> +4.9035782e+02 </wgt>
<wgt id='60'> +4.7400451e+02 </wgt>
<wgt id='61'> +4.3713450e+02 </wgt>
<wgt id='62'> +4.7372325e+02 </wgt>
<wgt id='63'> +4.8287466e+02 </wgt>
<wgt id='64'> +4.7343013e+02 </wgt>
<wgt id='65'> +5.4785257e+02 </wgt>
<wgt id='66'> +4.7207138e+02 </wgt>
<wgt id='67'> +4.8503329e+02 </wgt>
<wgt id='68'> +5.2598538e+02 </wgt>
<wgt id='69'> +4.7712306e+02 </wgt>
<wgt id='70'> +4.7462947e+02 </wgt>
<wgt id='71'> +4.8819214e+02 </wgt>
<wgt id='72'> +4.6447695e+02 </wgt>
<wgt id='73'> +4.6983065e+02 </wgt>
<wgt id='74'> +5.0459581e+02 </wgt>
<wgt id='75'> +4.9268779e+02 </wgt>
<wgt id='76'> +4.7236400e+02 </wgt>
<wgt id='77'> +4.6944700e+02 </wgt>
<wgt id='78'> +4.6828263e+02 </wgt>
<wgt id='79'> +4.7087221e+02 </wgt>
<wgt id='80'> +4.7149867e+02 </wgt>
<wgt id='81'> +4.7248592e+02 </wgt>
<wgt id='82'> +4.8199919e+02 </wgt>
<wgt id='83'> +4.8924261e+02 </wgt>
<wgt id='84'> +5.2184552e+02 </wgt>
<wgt id='85'> +4.9673651e+02 </wgt>
<wgt id='86'> +4.8210256e+02 </wgt>
<wgt id='87'> +4.8384968e+02 </wgt>
<wgt id='88'> +4.8599849e+02 </wgt>
<wgt id='89'> +4.9011539e+02 </wgt>
<wgt id='90'> +4.8979149e+02 </wgt>
<wgt id='91'> +5.0047845e+02 </wgt>
<wgt id='92'> +4.4074514e+02 </wgt>
<wgt id='93'> +4.7727031e+02 </wgt>
<wgt id='94'> +4.7238896e+02 </wgt>
<wgt id='95'> +4.7011457e+02 </wgt>
<wgt id='96'> +5.1801589e+02 </wgt>
<wgt id='97'> +4.8096477e+02 </wgt>
<wgt id='98'> +4.6662663e+02 </wgt>
<wgt id='99'> +4.6079539e+02 </wgt>
<wgt id='100'> +4.5955112e+02 </wgt>
<wgt id='101'> +5.2238004e+02 </wgt>
<wgt id='102'> +4.8520565e+02 </wgt>
<wgt id='103'> +5.2054186e+02 </wgt>
<wgt id='104'> +4.8414034e+02 </wgt>
<wgt id='105'> +4.9820476e+02 </wgt>
<wgt id='106'> +4.4047862e+02 </wgt>
<wgt id='107'> +4.6490860e+02 </wgt>
<wgt id='108'> +4.2702176e+02 </wgt>
<wgt id='109'> +4.5277992e+02 </wgt>
<wgt id='110'> +4.7914122e+02 </wgt>
<wgt id='111'> +4.6849030e+02 </wgt>
<wgt id='112'> +4.5685732e+02 </wgt>
<wgt id='113'> +4.4477898e+02 </wgt>
<wgt id='114'> +4.7415610e+02 </wgt>
<wgt id='115'> +4.6537766e+02 </wgt>
<wgt id='116'> +4.9211409e+02 </wgt>
<wgt id='117'> +4.8034938e+02 </wgt>
<wgt id='118'> +5.0109578e+02 </wgt>
<wgt id='119'> +4.6733194e+02 </wgt>
<wgt id='120'> +4.7249542e+02 </wgt>
<wgt id='121'> +4.7073690e+02 </wgt>
<wgt id='122'> +4.7614704e+02 </wgt>
<wgt id='123'> +4.8586172e+02 </wgt>
<wgt id='124'> +5.2608129e+02 </wgt>
<wgt id='125'> +5.2940874e+02 </wgt>
<wgt id='126'> +4.9788232e+02 </wgt>
<wgt id='127'> +4.9491883e+02 </wgt>
<wgt id='128'> +4.4083112e+02 </wgt>
<wgt id='129'> +5.4183478e+02 </wgt>
<wgt id='130'> +4.7949751e+02 </wgt>
<wgt id='131'> +5.0682203e+02 </wgt>
<wgt id='132'> +4.9489436e+02 </wgt>
<wgt id='133'> +4.8888992e+02 </wgt>
<wgt id='134'> +4.6271516e+02 </wgt>
<wgt id='135'> +4.9038869e+02 </wgt>
<wgt id='136'> +4.8376385e+02 </wgt>
<wgt id='137'> +4.5869083e+02 </wgt>
<wgt id='138'> +4.4720520e+02 </wgt>
<wgt id='139'> +4.9438723e+02 </wgt>
<wgt id='140'> +5.0158142e+02 </wgt>
<wgt id='141'> +4.8616292e+02 </wgt>
<wgt id='142'> +4.6371487e+02 </wgt>
<wgt id='143'> +4.8630225e+02 </wgt>
<wgt id='144'> +4.7522594e+02 </wgt>
<wgt id='145'> +4.8025016e+02 </wgt>
</rwgt>
</event>
<event>
 8      1 +4.8159400e+02 1.78701000e+02 7.54677100e-03 1.16911700e-01
       21 -1    0    0  503  502 +0.0000000000e+00 +0.0000000000e+00 +2.9410779153e+02 2.9410779153e+02 0.0000000000e+00 0.0000e+00 1.0000e+00
       21 -1    0    0  501  503 -0.0000000000e+00 -0.0000000000e+00 -1.0911930087e+02 1.0911930087e+02 0.0000000000e+00 0.0000e+00 1.0000e+00
        6  2    1    2  501    0 -1.9114977871e+01 -3.6902852942e+01 +7.6699872748e+01 1.9427624906e+02 1.7358913427e+02 0.0000e+00 0.0000e+00
       -6  2    1    2    0  502 +1.9114977871e+01 +3.6902852942e+01 +1.0828861790e+02 2.0895084334e+02 1.7380111401e+02 0.0000e+00 0.0000e+00
        5  1    3    3  501    0 -4.0448108740e+01 -7.4075058713e+01 +5.4197491823e+01 1.0041225993e+02 4.7000000000e+00 0.0000e+00 -1.0000e+00
       24  1    3    3    0    0 +2.1333130869e+01 +3.7172205771e+01 +2.2502380925e+01 9.3863989134e+01 8.0419002446e+01 0.0000e+00 -1.0000e+00
       -5  1    4    4    0  502 +1.7221392593e+01 +8.1800908409e+01 +3.3070586649e+01 9.0020656967e+01 4.7000000000e+00 0.0000e+00 1.0000e+00
      -24  1    4    4    0    0 +1.8935852780e+00 -4.4898055467e+01 +7.5218031256e+01 1.1893018637e+02 8.0419002446e+01 0.0000e+00 0.0000e+00
<mgrwt>
<rscale>  2 0.17864939E+03</rscale>
<asrwt>0</asrwt>
<pdfrwt beam="1">  1       21 0.45247352E-01 0.17870095E+03</pdfrwt>
<pdfrwt beam="2">  1       21 0.16787585E-01 0.17870095E+03</pdfrwt>
<totfact> 0.15027367E+05</totfact>
</mgrwt>
<rwgt>
<wgt id='1'> +6.1092927e+02 </wgt>
<wgt id='2'> +5.0382353e+02 </wgt>
<wgt id='3'> +4.8423349e+02 </wgt>
<wgt id='4'> +6.1449642e+02 </wgt>
<wgt id='5'> +4.8115855e+02 </wgt>
<wgt id='6'> +5.9306289e+02 </wgt>
<wgt id='7'> +4.8038676e+02 </wgt>
<wgt id='8'> +4.6058770e+02 </wgt>
<wgt id='9'> +5.9677905e+02 </wgt>
<wgt id='10'> +4.5753183e+02 </wgt>
<wgt id='11'> +5.6396137e+02 </wgt>
<wgt id='12'> +4.5576803e+02 </wgt>
<wgt id='13'> +4.3687867e+02 </wgt>
<wgt id='14'> +5.6763751e+02 </wgt>
<wgt id='15'> +4.3396474e+02 </wgt>
<wgt id='16'> +4.9610232e+02 </wgt>
<wgt id='17'> +4.2105120e+02 </wgt>
<wgt id='18'> +4.0653788e+02 </wgt>
<wgt id='19'> +4.9860958e+02 </wgt>
<wgt id='20'> +4.0420970e+02 </wgt>
<wgt id='21'> +4.0146482e+02 </wgt>
<wgt id='22'> +3.8668607e+02 </wgt>
<wgt id='23'> +4.8423349e+02 </wgt>
<wgt id='24'> +3.8436145e+02 </wgt>
<wgt id='25'> +4.5796225e+02 </wgt>
<wgt id='26'> +3.8089066e+02 </wgt>
<wgt id='27'> +3.6678117e+02 </wgt>
<wgt id='28'> +4.6058770e+02 </wgt>
<wgt id='29'> +3.6456331e+02 </wgt>
<wgt id='30'> +4.1672640e+02 </wgt>
<wgt id='31'> +3.5795678e+02 </wgt>
<wgt id='32'> +3.4638785e+02 </wgt>
<wgt id='33'> +4.1860731e+02 </wgt>
<wgt id='34'> +3.4452532e+02 </wgt>
<wgt id='35'> +4.0453941e+02 </wgt>
<wgt id='36'> +3.4130542e+02 </wgt>
<wgt id='37'> +3.2947326e+02 </wgt>
<wgt id='38'> +4.0653788e+02 </wgt>
<wgt id='39'> +3.2760781e+02 </wgt>
<wgt id='40'> +3.8468871e+02 </wgt>
<wgt id='41'> +3.2381429e+02 </wgt>
<wgt id='42'> +3.1251342e+02 </wgt>
<wgt id='43'> +3.8668607e+02 </wgt>
<wgt id='44'> +3.1073300e+02 </wgt>
<wgt id='45'> +4.8159400e+02 </wgt>
<wgt id='46'> +4.7824329e+02 </wgt>
<wgt id='47'> +4.9544672e+02 </wgt>
<wgt id='48'> +4.8043986e+02 </wgt>
<wgt id='49'> +4.8082621e+02 </wgt>
<wgt id='50'> +5.4863905e+02 </wgt>
<wgt id='51'> +4.7249097e+02 </wgt>
<wgt id='52'> +4.7848497e+02 </wgt>
<wgt id='53'> +4.8918246e+02 </wgt>
<wgt id='54'> +4.8423063e+02 </wgt>
<wgt id='55'> +4.3403531e+02 </wgt>
<wgt id='56'> +4.5288939e+02 </wgt>
<wgt id='57'> +4.7003705e+02 </wgt>
<wgt id='58'> +4.8847888e+02 </wgt>
<wgt id='59'> +4.7224336e+02 </wgt>
<wgt id='60'> +4.6047284e+02 </wgt>
<wgt id='61'> +4.7521901e+02 </wgt>
<wgt id='62'> +4.7461769e+02 </wgt>
<wgt id='63'> +4.8200995e+02 </wgt>
<wgt id='64'> +4.8043378e+02 </wgt>
<wgt id='65'> +5.6338228e+02 </wgt>
<wgt id='66'> +4.6967810e+02 </wgt>
<wgt id='67'> +4.8585238e+02 </wgt>
<wgt id='68'> +5.1102168e+02 </wgt>
<wgt id='69'> +4.6488004e+02 </wgt>
<wgt id='70'> +4.7476185e+02 </wgt>
<wgt id='71'> +4.9081333e+02 </wgt>
<wgt id='72'> +4.7639211e+02 </wgt>
<wgt id='73'> +4.7740417e+02 </wgt>
<wgt id='74'> +4.9170802e+02 </wgt>
<wgt id='75'> +4.9051589e+02 </wgt>
<wgt id='76'> +4.6950108e+02 </wgt>
<wgt id='77'> +4.6265861e+02 </wgt>
<wgt id='78'> +4.8533856e+02 </wgt>
<wgt id='79'> +4.6079037e+02 </wgt>
<wgt id='80'> +4.7899617e+02 </wgt>
<wgt id='81'> +4.7465856e+02 </wgt>
<wgt id='82'> +4.9570576e+02 </wgt>
<wgt id='83'> +4.8849299e+02 </wgt>
<wgt id='84'> +5.2439316e+02 </wgt>
<wgt id='85'> +5.0523186e+02 </wgt>
<wgt id='86'> +4.7599831e+02 </wgt>
<wgt id='87'> +4.8039322e+02 </wgt>
<wgt id='88'> +4.8769250e+02 </wgt>
<wgt id='89'> +4.9101187e+02 </wgt>
<wgt id='90'> +4.8610569e+02 </wgt>
<wgt id='91'> +5.1208481e+02 </wgt>
<wgt id='92'> +4.5211763e+02 </wgt>
<wgt id='93'> +4.7155750e+02 </wgt>
<wgt id='94'> +4.8191030e+02 </wgt>
<wgt id='95'> +4.6498817e+02 </wgt>
<wgt id='96'> +5.1335995e+02 </wgt>
<wgt id='97'> +4.9079037e+02 </wgt>
<wgt id='98'> +4.5948200e+02 </wgt>
<wgt id='99'> +4.6957395e+02 </wgt>
<wgt id='100'> +4.8429556e+02 </wgt>
<wgt id='101'> +4.9828719e+02 </wgt>
<wgt id='102'> +4.6225466e+02 </wgt>
<wgt id='103'> +5.1849234e+02 </wgt>
<wgt id='104'> +4.7833509e+02 </wgt>
<wgt id='105'> +5.0312714e+02 </wgt>
<wgt id='106'> +4.5075895e+02 </wgt>
<wgt id='107'> +4.8208563e+02 </wgt>
<wgt id='108'> +4.3901029e+02 </wgt>
<wgt id='109'> +4.5733848e+02 </wgt>
<wgt id='110'> +4.8408652e+02 </wgt>
<wgt id='111'> +4.7167766e+02 </wgt>
<wgt id='112'> +4.6340153e+02 </wgt>
<wgt id='113'> +4.4653933e+02 </wgt>
<wgt id='114'> +4.8632933e+02 </wgt>
<wgt id='115'> +4.8711699e+02 </wgt>
<wgt id='116'> +4.7557204e+02 </wgt>
<wgt id='117'> +4.8930164e+02 </wgt>
<wgt id='118'> +4.8840793e+02 </wgt>
<wgt id='119'> +4.6577309e+02 </wgt>
<wgt id='120'> +4.8218866e+02 </wgt>
<wgt id='121'> +4.7102299e+02 </wgt>
<wgt id='122'> +4.7641612e+02 </wgt>
<wgt id='123'> +4.8554563e+02 </wgt>
<wgt id='124'> +5.0712824e+02 </wgt>
<wgt id='125'> +5.0899754e+02 </wgt>
<wgt id='126'> +4.9668091e+02 </wgt>
<wgt id='127'> +4.9334214e+02 </wgt>
<wgt id='128'> +4.5064369e+02 </wgt>
<wgt id='129'> +5.4145646e+02 </wgt>
<wgt id='130'> +4.8297279e+02 </wgt>
<wgt id='131'> +5.1481180e+02 </wgt>
<wgt id='132'> +4.7436704e+02 </wgt>
<wgt id='133'> +4.7461792e+02 </wgt>
<wgt id='134'> +4.5381216e+02 </wgt>
<wgt id='135'> +4.9359810e+02 </wgt>
<wgt id='136'> +4.6080417e+02 </wgt>
<wgt id='137'> +4.5241010e+02 </wgt>
<wgt id='138'> +4.3372949e+02 </wgt>
<wgt id='139'> +4.8872433e+02 </wgt>
<wgt id='140'> +5.1294448e+02 </wgt>
<wgt id='141'> +4.7942183e+02 </wgt>
<wgt id='142'> +4.8926472e+02 </wgt>
<wgt id='143'> +4.7641892e+02 </wgt>
<wgt id='144'> +4.8457764e+02 </wgt>
<wgt id='145'> +4.8251849e+02 </wgt>
</rwgt>
</event>
<event>
 8      1 +4.8159400e+02 2.20396500e+02 7.54677100e-03 1.13369700e-01
       21 -1    0    0  501  502 +0.0000000000e+00 +0.0000000000e+00 +6.4458183407e+02 6.4458183407e+02 0.0000000000e+00 0.0000e+00 -1.0000e+00
       21 -1    0    0  502  503 -0.0000000000e+00 -0.0000000000e+00 -9.6656174782e+01 9.6656174782e+01 0.0000000000e+00 0.0000e+00 -1.0000e+00
       -6  2    1    2    0  503 +5.4877487945e+00 -1.3579529556e+02 +9.8889289447e+01 2.4102977838e+02 1.7275932627e+02 0.0000e+00 0.0000e+00
        6  2    1    2  501    0 -5.4877487945e+00 +1.3579529556e+02 +4.4903636984e+02 5.0020823047e+02 1.7350543136e+02 0.0000e+00 0.0000e+00
        5  1    4    4  501    0 -6.2891640840e+01 +2.7353103742e+01 +1.9617861463e+02 2.0787421583e+02 4.7000000000e+00 0.0000e+00 -1.0000e+00
       24  1    4    4    0    0 +5.7403892045e+01 +1.0844219182e+02 +2.5285775521e+02 2.9233401464e+02 8.0419002446e+01 0.0000e+00 0.0000e+00
       -5  1    3    3    0  503 -3.6020055269e+01 -2.0504357336e+01 -2.5417489522e+01 4.8846820008e+01 4.7000000000e+00 0.0000e+00 1.0000e+00
      -24  1    3    3    0    0 +4.1507804063e+01 -1.1529093823e+02 +1.2430677897e+02 1.9218295837e+02 8.0419002446e+01 0.0000e+00 1.0000e+00
<mgrwt>
<rscale>  2 0.22024962E+03</rscale>
<asrwt>0</asrwt>
<pdfrwt beam="1">  1       21 0.99166433E-01 0.22039649E+03</pdfrwt>
<pdfrwt beam="2">  1       21 0.14870181E-01 0.22039649E+03</pdfrwt>
<totfact> 0.32872721E+04</totfact>
</mgrwt>
<rwgt>
<wgt id='1'> +6.2669483e+02 </wgt>
<wgt id='2'> +5.1238779e+02 </wgt>
<wgt id='3'> +4.9739378e+02 </wgt>
<wgt id='4'> +6.4869286e+02 </wgt>
<wgt id='5'> +4.6006554e+02 </wgt>
<wgt id='6'> +5.8667341e+02 </wgt>
<wgt id='7'> +4.7383797e+02 </wgt>
<wgt id='8'> +4.5979792e+02 </wgt>
<wgt id='9'> +6.0889158e+02 </wgt>
<wgt id='10'> +4.2541866e+02 </wgt>
<wgt id='11'> +5.4240194e+02 </wgt>
<wgt id='12'> +4.3837441e+02 </wgt>
<wgt id='13'> +4.2544081e+02 </wgt>
<wgt id='14'> +5.6286808e+02 </wgt>
<wgt id='15'> +3.9378352e+02 </wgt>
<wgt id='16'> +5.1444716e+02 </wgt>
<wgt id='17'> +4.3097116e+02 </wgt>
<wgt id='18'> +4.1924724e+02 </wgt>
<wgt id='19'> +5.2990681e+02 </wgt>
<wgt id='20'> +3.8941816e+02 </wgt>
<wgt id='21'> +3.9854677e+02 </wgt>
<wgt id='22'> +3.8755814e+02 </wgt>
<wgt id='23'> +4.9739378e+02 </wgt>
<wgt id='24'> +3.6009164e+02 </wgt>
<wgt id='25'> +4.4525202e+02 </wgt>
<wgt id='26'> +3.6871824e+02 </wgt>
<wgt id='27'> +3.5859895e+02 </wgt>
<wgt id='28'> +4.5979792e+02 </wgt>
<wgt id='29'> +3.3331437e+02 </wgt>
<wgt id='30'> +4.3437097e+02 </wgt>
<wgt id='31'> +3.6760094e+02 </wgt>
<wgt id='32'> +3.5811765e+02 </wgt>
<wgt id='33'> +4.4665209e+02 </wgt>
<wgt id='34'> +3.3387703e+02 </wgt>
<wgt id='35'> +4.0663157e+02 </wgt>
<wgt id='36'> +3.3994425e+02 </wgt>
<wgt id='37'> +3.3104907e+02 </wgt>
<wgt id='38'> +4.1924724e+02 </wgt>
<wgt id='39'> +3.0873324e+02 </wgt>
<wgt id='40'> +3.7594639e+02 </wgt>
<wgt id='41'> +3.1450173e+02 </wgt>
<wgt id='42'> +3.0631236e+02 </wgt>
<wgt id='43'> +3.8755814e+02 </wgt>
<wgt id='44'> +2.8577510e+02 </wgt>
<wgt id='45'> +4.8159400e+02 </wgt>
<wgt id='46'> +4.9135946e+02 </wgt>
<wgt id='47'> +4.9709811e+02 </wgt>
<wgt id='48'> +4.8466116e+02 </wgt>
<wgt id='49'> +4.7290098e+02 </wgt>
<wgt id='50'> +5.7339578e+02 </wgt>
<wgt id='51'> +4.6902671e+02 </wgt>
<wgt id='52'> +4.7922742e+02 </wgt>
<wgt id='53'> +4.7693781e+02 </wgt>
<wgt id='54'> +4.9005118e+02 </wgt>
<wgt id='55'> +4.5660544e+02 </wgt>
<wgt id='56'> +4.4120132e+02 </wgt>
<wgt id='57'> +4.8320681e+02 </wgt>
<wgt id='58'> +4.7050070e+02 </wgt>
<wgt id='59'> +4.9800881e+02 </wgt>
<wgt id='60'> +4.7831134e+02 </wgt>
<wgt id='61'> +4.2798135e+02 </wgt>
<wgt id='62'> +4.7136115e+02 </wgt>
<wgt id='63'> +4.8462420e+02 </wgt>
<wgt id='64'> +4.7310057e+02 </wgt>
<wgt id='65'> +5.3491027e+02 </wgt>
<wgt id='66'> +4.7381623e+02 </wgt>
<wgt id='67'> +4.8447279e+02 </wgt>
<wgt id='68'> +5.3143484e+02 </wgt>
<wgt id='69'> +4.8227652e+02 </wgt>
<wgt id='70'> +4.7692186e+02 </wgt>
<wgt id='71'> +4.8489286e+02 </wgt>
<wgt id='72'> +4.6175557e+02 </wgt>
<wgt id='73'> +4.6512870e+02 </wgt>
<wgt id='74'> +5.1000504e+02 </wgt>
<wgt id='75'> +4.9391044e+02 </wgt>
<wgt id='76'> +4.7561578e+02 </wgt>
<wgt id='77'> +4.7066538e+02 </wgt>
<wgt id='78'> +4.6018333e+02 </wgt>
<wgt id='79'> +4.7634992e+02 </wgt>
<wgt id='80'> +4.6733378e+02 </wgt>
<wgt id='81'> +4.7355077e+02 </wgt>
<wgt id='82'> +4.7572167e+02 </wgt>
<wgt id='83'> +4.8753018e+02 </wgt>
<wgt id='84'> +5.1645811e+02 </wgt>
<wgt id='85'> +4.8926047e+02 </wgt>
<wgt id='86'> +4.8478873e+02 </wgt>
<wgt id='87'> +4.8413181e+02 </wgt>
<wgt id='88'> +4.8429522e+02 </wgt>
<wgt id='89'> +4.8428549e+02 </wgt>
<wgt id='90'> +4.8835743e+02 </wgt>
<wgt id='91'> +4.9133654e+02 </wgt>
<wgt id='92'> +4.4010731e+02 </wgt>
<wgt id='93'> +4.7913230e+02 </wgt>
<wgt id='94'> +4.6753883e+02 </wgt>
<wgt id='95'> +4.7570559e+02 </wgt>
<wgt id='96'> +5.1593918e+02 </wgt>
<wgt id='97'> +4.7533813e+02 </wgt>
<wgt id='98'> +4.7260815e+02 </wgt>
<wgt id='99'> +4.5465816e+02 </wgt>
<wgt id='100'> +4.4698650e+02 </wgt>
<wgt id='101'> +5.3070384e+02 </wgt>
<wgt id='102'> +4.9524064e+02 </wgt>
<wgt id='103'> +5.1574788e+02 </wgt>
<wgt id='104'> +4.8745387e+02 </wgt>
<wgt id='105'> +4.9687297e+02 </wgt>
<wgt id='106'> +4.4074437e+02 </wgt>
<wgt id='107'> +4.6045364e+02 </wgt>
<wgt id='108'> +4.2715629e+02 </wgt>
<wgt id='109'> +4.5465095e+02 </wgt>
<wgt id='110'> +4.7568231e+02 </wgt>
<wgt id='111'> +4.6863762e+02 </wgt>
<wgt id='112'> +4.5910576e+02 </wgt>
<wgt id='113'> +4.4887882e+02 </wgt>
<wgt id='114'> +4.7398213e+02 </wgt>
<wgt id='115'> +4.5886552e+02 </wgt>
<wgt id='116'> +4.9843090e+02 </wgt>
<wgt id='117'> +4.7710511e+02 </wgt>
<wgt id='118'> +5.0367289e+02 </wgt>
<wgt id='119'> +4.7235561e+02 </wgt>
<wgt id='120'> +4.7215973e+02 </wgt>
<wgt id='121'> +4.7234697e+02 </wgt>
<wgt id='122'> +4.7583022e+02 </wgt>
<wgt id='123'> +4.8411169e+02 </wgt>
<wgt id='124'> +5.3159543e+02 </wgt>
<wgt id='125'> +5.3848557e+02 </wgt>
<wgt id='126'> +4.9546626e+02 </wgt>
<wgt id='127'> +4.9244043e+02 </wgt>
<wgt id='128'> +4.4031707e+02 </wgt>
<wgt id='129'> +5.3719344e+02 </wgt>
<wgt id='130'> +4.7833699e+02 </wgt>
<wgt id='131'> +4.9995556e+02 </wgt>
<wgt id='132'> +5.0336719e+02 </wgt>
<wgt id='133'> +4.9495861e+02 </wgt>
<wgt id='134'> +4.6870296e+02 </wgt>
<wgt id='135'> +4.8708133e+02 </wgt>
<wgt id='136'> +4.9696731e+02 </wgt>
<wgt id='137'> +4.6316619e+02 </wgt>
<wgt id='138'> +4.5404999e+02 </wgt>
<wgt id='139'> +4.9551595e+02 </wgt>
<wgt id='140'> +4.9554174e+02 </wgt>
<wgt id='141'> +4.9177588e+02 </wgt>
<wgt id='142'> +4.5221245e+02 </wgt>
<wgt id='143'> +4.8976025e+02 </wgt>
<wgt id='144'> +4.7037438e+02 </wgt>
<wgt id='145'> +4.7651729e+02 </wgt>
</rwgt>
</event>
<event>
 8      1 +4.8159400e+02 1.81436900e+02 7.54677100e-03 1.16642000e-01
        1 -1    0    0  502    0 +0.0000000000e+00 +0.0000000000e+00 +8.5718577719e+01 8.5718577719e+01 0.0000000000e+00 0.0000e+00 -1.0000e+00
       -1 -1    0    0    0  501 -0.0000000000e+00 -0.0000000000e+00 -9.4846389344e+02 9.4846389344e+02 0.0000000000e+00 0.0000e+00 1.0000e+00
        6  2    1    2  502    0 -4.5358698910e+01 +2.8743773824e+01 -3.2727764346e+01 1.8462131600e+02 1.7358083898e+02 0.0000e+00 0.0000e+00
       -6  2    1    2    0  501 +4.5358698910e+01 -2.8743773824e+01 -8.3001755137e+02 8.4956115516e+02 1.7303584793e+02 0.0000e+00 0.0000e+00
        5  1    3    3  502    0 +5.1986853279e+01 +1.8635455728e+00 -4.1298489499e+00 5.2395146420e+01 4.7000000000e+00 0.0000e+00 -1.0000e+00
       24  1    3    3    0    0 -9.7345552190e+01 +2.6880228251e+01 -2.8597915397e+01 1.3222616958e+02 8.0419002446e+01 0.0000e+00 1.0000e+00
       -5  1    4    4    0  501 +6.9700742999e+01 -5.3754086762e+01 -5.1868074201e+02 5.2611738001e+02 4.7000000000e+00 0.0000e+00 1.0000e+00
      -24  1    4    4    0    0 -2.4342044089e+01 +2.5010312938e+01 -3.1133680936e+02 3.2344377515e+02 8.0419002446e+01 0.0000e+00 1.0000e+00
<mgrwt>
<rscale>  2 0.18143687E+03</rscale>
<asrwt>0</asrwt>
<pdfrwt beam="1">  1        1 0.13187473E-01 0.18143687E+03</pdfrwt>
<pdfrwt beam="2">  1       -1 0.14591752E+00 0.18143687E+03</pdfrwt>
<totfact> 0.18177843E+02</totfact>
</mgrwt>
<rwgt>
<wgt id='1'> +5.9939987e+02 </wgt>
<wgt id='2'> +5.0812108e+02 </wgt>
<wgt id='3'> +4.8383430e+02 </wgt>
<wgt id='4'> +6.0259563e+02 </wgt>
<wgt id='5'> +4.2491535e+02 </wgt>
<wgt id='6'> +5.9260440e+02 </wgt>
<wgt id='7'> +5.0060884e+02 </wgt>
<wgt id='8'> +4.7620209e+02 </wgt>
<wgt id='9'> +5.9583460e+02 </wgt>
<wgt id='10'> +4.1714966e+02 </wgt>
<wgt id='11'> +5.8320031e+02 </wgt>
<wgt id='12'> +4.9131433e+02 </wgt>
<wgt id='13'> +4.6702005e+02 </wgt>
<wgt id='14'> +5.8643565e+02 </wgt>
<wgt id='15'> +4.0837551e+02 </wgt>
<wgt id='16'> +4.8711649e+02 </wgt>
<wgt id='17'> +4.2407726e+02 </wgt>
<wgt id='18'> +4.0641545e+02 </wgt>
<wgt id='19'> +4.8932444e+02 </wgt>
<wgt id='20'> +3.6061255e+02 </wgt>
<wgt id='21'> +4.1780755e+02 </wgt>
<wgt id='22'> +4.0000448e+02 </wgt>
<wgt id='23'> +4.8383430e+02 </wgt>
<wgt id='24'> +3.5402205e+02 </wgt>
<wgt id='25'> +4.7395154e+02 </wgt>
<wgt id='26'> +4.1005036e+02 </wgt>
<wgt id='27'> +3.9229166e+02 </wgt>
<wgt id='28'> +4.7620209e+02 </wgt>
<wgt id='29'> +3.4657570e+02 </wgt>
<wgt id='30'> +4.0937977e+02 </wgt>
<wgt id='31'> +3.6033389e+02 </wgt>
<wgt id='32'> +3.4638498e+02 </wgt>
<wgt id='33'> +4.1102710e+02 </wgt>
<wgt id='34'> +3.0987220e+02 </wgt>
<wgt id='35'> +4.0473859e+02 </wgt>
<wgt id='36'> +3.5500659e+02 </wgt>
<wgt id='37'> +3.4092096e+02 </wgt>
<wgt id='38'> +4.0641545e+02 </wgt>
<wgt id='39'> +3.0420903e+02 </wgt>
<wgt id='40'> +3.9831576e+02 </wgt>
<wgt id='41'> +3.4841539e+02 </wgt>
<wgt id='42'> +3.3434738e+02 </wgt>
<wgt id='43'> +4.0000448e+02 </wgt>
<wgt id='44'> +2.9781042e+02 </wgt>
<wgt id='45'> +4.8159400e+02 </wgt>
<wgt id='46'> +4.8309030e+02 </wgt>
<wgt id='47'> +5.1347593e+02 </wgt>
<wgt id='48'> +4.3582289e+02 </wgt>
<wgt id='49'> +4.6493461e+02 </wgt>
<wgt id='50'> +4.6588782e+02 </wgt>
<wgt id='51'> +4.1777039e+02 </wgt>
<wgt id='52'> +5.7997947e+02 </wgt>
<wgt id='53'> +5.9294038e+02 </wgt>
<wgt id='54'> +5.0883237e+02 </wgt>
<wgt id='55'> +4.4439618e+02 </wgt>
<wgt id='56'> +4.0692300e+02 </wgt>
<wgt id='57'> +3.7536263e+02 </wgt>
<wgt id='58'> +6.5733644e+02 </wgt>
<wgt id='59'> +4.5879867e+02 </wgt>
<wgt id='60'> +4.6916343e+02 </wgt>
<wgt id='61'> +4.0679807e+02 </wgt>
<wgt id='62'> +4.7842754e+02 </wgt>
<wgt id='63'> +5.0354588e+02 </wgt>
<wgt id='64'> +4.7880464e+02 </wgt>
<wgt id='65'> +4.3768332e+02 </wgt>
<wgt id='66'> +3.7157527e+02 </wgt>
<wgt id='67'> +4.6238178e+02 </wgt>
<wgt id='68'> +4.7532389e+02 </wgt>
<wgt id='69'> +4.4857172e+02 </wgt>
<wgt id='70'> +6.2591727e+02 </wgt>
<wgt id='71'> +3.8831252e+02 </wgt>
<wgt id='72'> +4.0293727e+02 </wgt>
<wgt id='73'> +5.4620361e+02 </wgt>
<wgt id='74'> +5.2542191e+02 </wgt>
<wgt id='75'> +4.4968945e+02 </wgt>
<wgt id='76'> +4.9298132e+02 </wgt>
<wgt id='77'> +4.1780921e+02 </wgt>
<wgt id='78'> +4.5656577e+02 </wgt>
<wgt id='79'> +5.2685416e+02 </wgt>
<wgt id='80'> +4.1132725e+02 </wgt>
<wgt id='81'> +5.8113988e+02 </wgt>
<wgt id='82'> +5.0034092e+02 </wgt>
<wgt id='83'> +4.7462996e+02 </wgt>
<wgt id='84'> +4.8394798e+02 </wgt>
<wgt id='85'> +4.6973240e+02 </wgt>
<wgt id='86'> +5.5971761e+02 </wgt>
<wgt id='87'> +5.4400212e+02 </wgt>
<wgt id='88'> +4.5327143e+02 </wgt>
<wgt id='89'> +5.9162397e+02 </wgt>
<wgt id='90'> +4.9953659e+02 </wgt>
<wgt id='91'> +4.2614140e+02 </wgt>
<wgt id='92'> +4.1361162e+02 </wgt>
<wgt id='93'> +5.0001740e+02 </wgt>
<wgt id='94'> +4.8163539e+02 </wgt>
<wgt id='95'> +4.2100139e+02 </wgt>
<wgt id='96'> +4.8850099e+02 </wgt>
<wgt id='97'> +4.2717597e+02 </wgt>
<wgt id='98'> +4.5735385e+02 </wgt>
<wgt id='99'> +5.6778786e+02 </wgt>
<wgt id='100'> +3.2870033e+02 </wgt>
<wgt id='101'> +5.3146017e+02 </wgt>
<wgt id='102'> +5.1861698e+02 </wgt>
<wgt id='103'> +6.0321038e+02 </wgt>
<wgt id='104'> +4.2318111e+02 </wgt>
<wgt id='105'> +5.3965577e+02 </wgt>
<wgt id='106'> +4.6986453e+02 </wgt>
<wgt id='107'> +5.2704353e+02 </wgt>
<wgt id='108'> +3.5795250e+02 </wgt>
<wgt id='109'> +4.1305295e+02 </wgt>
<wgt id='110'> +5.0569503e+02 </wgt>
<wgt id='111'> +4.4558774e+02 </wgt>
<wgt id='112'> +3.9658254e+02 </wgt>
<wgt id='113'> +5.1249533e+02 </wgt>
<wgt id='114'> +4.3805050e+02 </wgt>
<wgt id='115'> +3.7598156e+02 </wgt>
<wgt id='116'> +4.5314643e+02 </wgt>
<wgt id='117'> +4.2922208e+02 </wgt>
<wgt id='118'> +5.2313035e+02 </wgt>
<wgt id='119'> +5.7226004e+02 </wgt>
<wgt id='120'> +5.0624293e+02 </wgt>
<wgt id='121'> +4.5879678e+02 </wgt>
<wgt id='122'> +4.9027315e+02 </wgt>
<wgt id='123'> +4.7169650e+02 </wgt>
<wgt id='124'> +4.7874313e+02 </wgt>
<wgt id='125'> +4.8805227e+02 </wgt>
<wgt id='126'> +4.9552394e+02 </wgt>
<wgt id='127'> +5.2756555e+02 </wgt>
<wgt id='128'> +4.2160555e+02 </wgt>
<wgt id='129'> +6.0453279e+02 </wgt>
<wgt id='130'> +4.0536474e+02 </wgt>
<wgt id='131'> +5.7356818e+02 </wgt>
<wgt id='132'> +4.5752900e+02 </wgt>
<wgt id='133'> +6.4304336e+02 </wgt>
<wgt id='134'> +4.3353021e+02 </wgt>
<wgt id='135'> +4.0559089e+02 </wgt>
<wgt id='136'> +5.9243940e+02 </wgt>
<wgt id='137'> +5.0759482e+02 </wgt>
<wgt id='138'> +4.3381491e+02 </wgt>
<wgt id='139'> +6.0611063e+02 </wgt>
<wgt id='140'> +4.8357830e+02 </wgt>
<wgt id='141'> +5.5506423e+02 </wgt>
<wgt id='142'> +3.7223662e+02 </wgt>
<wgt id='143'> +5.0204229e+02 </wgt>
<wgt id='144'> +4.3708532e+02 </wgt>
<wgt id='145'> +5.2783674e+02 </wgt>
</rwgt>
</event>
<event>
 8      1 +4.8159400e+02 2.04400300e+02 7.54677100e-03 1.14613200e-01
       21 -1    0    0  503  502 +0.0000000000e+00 +0.0000000000e+00 +1.0395975144e+02 1.0395975144e+02 0.0000000000e+00 0.0000e+00 -1.0000e+00
       21 -1    0    0  501  503 -0.0000000000e+00 -0.0000000000e+00 -5.6552457154e+02 5.6552457154e+02 0.0000000000e+00 0.0000e+00 1.0000e+00
        6  2    1    2  501    0 +4.3816700564e+01 -9.8957713291e+01 -4.1102513749e+02 4.5892850554e+02 1.7309297293e+02 0.0000e+00 0.0000e+00
       -6  2    1    2    0  502 -4.3816700564e+01 +9.8957713291e+01 -5.0539682601e+01 2.1055581744e+02 1.7339827124e+02 0.0000e+00 0.0000e+00
        5  1    3    3  501    0 +2.6156111598e+01 -9.6461840044e+00 +2.0665952900e+00 2.8346990244e+01 4.7000000000e+00 0.0000e+00 -1.0000e+00
       24  1    3    3    0    0 +1.7660588965e+01 -8.9311529287e+01 -4.1309173278e+02 4.3058151530e+02 8.0419002446e+01 0.0000e+00 0.0000e+00
       -5  1    4    4    0  502 +9.7274825210e+00 -2.8859319354e+01 +1.8663665242e+01 3.6026471240e+01 4.7000000000e+00 0.0000e+00 1.0000e+00
      -24  1    4    4    0    0 -5.3544183085e+01 +1.2781703265e+02 -6.9203347843e+01 1.7452934620e+02 8.0419002446e+01 0.0000e+00 0.0000e+00
<mgrwt>
<rscale>  2 0.20433556E+03</rscale>
<asrwt>0</asrwt>
<pdfrwt beam="1">  1       21 0.15993808E-01 0.20440032E+03</pdfrwt>
<pdfrwt beam="2">  1       21 0.87003780E-01 0.20440032E+03</pdfrwt>
<totfact> 0.39388654E+04</totfact>
</mgrwt>
<rwgt>
<wgt id='1'> +6.2535278e+02 </wgt>
<wgt id='2'> +5.3480743e+02 </wgt>
<wgt id='3'> +5.1489587e+02 </wgt>
<wgt id='4'> +6.7159246e+02 </wgt>
<wgt id='5'> +4.5266653e+02 </wgt>
<wgt id='6'> +5.8915594e+02 </wgt>
<wgt id='7'> +4.9789808e+02 </wgt>
<wgt id='8'> +4.7843603e+02 </wgt>
<wgt id='9'> +6.3544924e+02 </wgt>
<wgt id='10'> +4.2010026e+02 </wgt>
<wgt id='11'> +5.4665680e+02 </wgt>
<wgt id='12'> +4.6214963e+02 </wgt>
<wgt id='13'> +4.4412848e+02 </wgt>
<wgt id='14'> +5.9045300e+02 </wgt>
<wgt id='15'> +3.9015612e+02 </wgt>
<wgt id='16'> +5.1118239e+02 </wgt>
<wgt id='17'> +4.4664670e+02 </wgt>
<wgt id='18'> +4.3181633e+02 </wgt>
<wgt id='19'> +5.4418223e+02 </wgt>
<wgt id='20'> +3.8293291e+02 </wgt>
<wgt id='21'> +4.1582170e+02 </wgt>
<wgt id='22'> +4.0123936e+02 </wgt>
<wgt id='23'> +5.1489587e+02 </wgt>
<wgt id='24'> +3.5538350e+02 </wgt>
<wgt id='25'> +4.4685391e+02 </wgt>
<wgt id='26'> +3.8596623e+02 </wgt>
<wgt id='27'> +3.7246741e+02 </wgt>
<wgt id='28'> +4.7843603e+02 </wgt>
<wgt id='29'> +3.3005227e+02 </wgt>
<wgt id='30'> +4.3098429e+02 </wgt>
<wgt id='31'> +3.7961221e+02 </wgt>
<wgt id='32'> +3.6771390e+02 </wgt>
<wgt id='33'> +4.5637727e+02 </wgt>
<wgt id='34'> +3.2815246e+02 </wgt>
<wgt id='35'> +4.0603794e+02 </wgt>
<wgt id='36'> +3.5341354e+02 </wgt>
<wgt id='37'> +3.4167603e+02 </wgt>
<wgt id='38'> +4.3181633e+02 </wgt>
<wgt id='39'> +3.0454413e+02 </wgt>
<wgt id='40'> +3.7674814e+02 </wgt>
<wgt id='41'> +3.2803890e+02 </wgt>
<wgt id='42'> +3.1717523e+02 </wgt>
<wgt id='43'> +4.0123936e+02 </wgt>
<wgt id='44'> +2.8283666e+02 </wgt>
<wgt id='45'> +4.8159400e+02 </wgt>
<wgt id='46'> +4.8941080e+02 </wgt>
<wgt id='47'> +4.9773791e+02 </wgt>
<wgt id='48'> +4.8512464e+02 </wgt>
<wgt id='49'> +4.7571107e+02 </wgt>
<wgt id='50'> +5.7182423e+02 </wgt>
<wgt id='51'> +4.7044495e+02 </wgt>
<wgt id='52'> +4.8027086e+02 </wgt>
<wgt id='53'> +4.7878947e+02 </wgt>
<wgt id='54'> +4.8784671e+02 </wgt>
<wgt id='55'> +4.4818168e+02 </wgt>
<wgt id='56'> +4.4166592e+02 </wgt>
<wgt id='57'> +4.7898570e+02 </wgt>
<wgt id='58'> +4.7483578e+02 </wgt>
<wgt id='59'> +4.9242047e+02 </wgt>
<wgt id='60'> +4.7526236e+02 </wgt>
<wgt id='61'> +4.3392387e+02 </wgt>
<wgt id='62'> +4.7327653e+02 </wgt>
<wgt id='63'> +4.8322951e+02 </wgt>
<wgt id='64'> +4.7306349e+02 </wgt>
<wgt id='65'> +5.4493651e+02 </wgt>
<wgt id='66'> +4.7255071e+02 </wgt>
<wgt id='67'> +4.8490163e+02 </wgt>
<wgt id='68'> +5.2758526e+02 </wgt>
<wgt id='69'> +4.7873278e+02 </wgt>
<wgt id='70'> +4.7505685e+02 </wgt>
<wgt id='71'> +4.8746618e+02 </wgt>
<wgt id='72'> +4.6333325e+02 </wgt>
<wgt id='73'> +4.6861682e+02 </wgt>
<wgt id='74'> +5.0612265e+02 </wgt>
<wgt id='75'> +4.9304689e+02 </wgt>
<wgt id='76'> +4.7304936e+02 </wgt>
<wgt id='77'> +4.6994528e+02 </wgt>
<wgt id='78'> +4.6612062e+02 </wgt>
<wgt id='79'> +4.7230499e+02 </wgt>
<wgt id='80'> +4.7043038e+02 </wgt>
<wgt id='81'> +4.7259102e+02 </wgt>
<wgt id='82'> +4.8029852e+02 </wgt>
<wgt id='83'> +4.8904646e+02 </wgt>
<wgt id='84'> +5.2081885e+02 </wgt>
<wgt id='85'> +4.9502125e+02 </wgt>
<wgt id='86'> +4.8290168e+02 </wgt>
<wgt id='87'> +4.8403203e+02 </wgt>
<wgt id='88'> +4.8571500e+02 </wgt>
<wgt id='89'> +4.8895161e+02 </wgt>
<wgt id='90'> +4.8961900e+02 </wgt>
<wgt id='91'> +4.9833159e+02 </wgt>
<wgt id='92'> +4.4007952e+02 </wgt>
<wgt id='93'> +4.7786786e+02 </wgt>
<wgt id='94'> +4.7107811e+02 </wgt>
<wgt id='95'> +4.7128311e+02 </wgt>
<wgt id='96'> +5.1789730e+02 </wgt>
<wgt id='97'> +4.7952437e+02 </wgt>
<wgt id='98'> +4.6805489e+02 </wgt>
<wgt id='99'> +4.5928840e+02 </wgt>
<wgt id='100'> +4.5618731e+02 </wgt>
<wgt id='101'> +5.2487685e+02 </wgt>
<wgt id='102'> +4.8804030e+02 </wgt>
<wgt id='103'> +5.1968949e+02 </wgt>
<wgt id='104'> +4.8507823e+02 </wgt>
<wgt id='105'> +4.9767017e+02 </wgt>
<wgt id='106'> +4.4008373e+02 </wgt>
<wgt id='107'> +4.6335038e+02 </wgt>
<wgt id='108'> +4.2660272e+02 </wgt>
<wgt id='109'> +4.5291285e+02 </wgt>
<wgt id='110'> +4.7823187e+02 </wgt>
<wgt id='111'> +4.6838410e+02 </wgt>
<wgt id='112'> +4.5702920e+02 </wgt>
<wgt id='113'> +4.4547496e+02 </wgt>
<wgt id='114'> +4.7359191e+02 </wgt>
<wgt id='115'> +4.6344631e+02 </wgt>
<wgt id='116'> +4.9402174e+02 </wgt>
<wgt id='117'> +4.7943763e+02 </wgt>
<wgt id='118'> +5.0210788e+02 </wgt>
<wgt id='119'> +4.6827564e+02 </wgt>
<wgt id='120'> +4.7215618e+02 </wgt>
<wgt id='121'> +4.7093795e+02 </wgt>
<wgt id='122'> +4.7607295e+02 </wgt>
<wgt id='123'> +4.8562667e+02 </wgt>
<wgt id='124'> +5.2785195e+02 </wgt>
<wgt id='125'> +5.3188609e+02 </wgt>
<wgt id='126'> +4.9753877e+02 </wgt>
<wgt id='127'> +4.9452053e+02 </wgt>
<wgt id='128'> +4.4046581e+02 </wgt>
<wgt id='129'> +5.4089930e+02 </wgt>
<wgt id='130'> +4.7925731e+02 </wgt>
<wgt id='131'> +5.0518900e+02 </wgt>
<wgt id='132'> +4.9716263e+02 </wgt>
<wgt id='133'> +4.9060216e+02 </wgt>
<wgt id='134'> +4.6417372e+02 </wgt>
<wgt id='135'> +4.8961244e+02 </wgt>
<wgt id='136'> +4.8702057e+02 </wgt>
<wgt id='137'> +4.5988872e+02 </wgt>
<wgt id='138'> +4.4923934e+02 </wgt>
<wgt id='139'> +4.9478309e+02 </wgt>
<wgt id='140'> +4.9997533e+02 </wgt>
<wgt id='141'> +4.8751639e+02 </wgt>
<wgt id='142'> +4.6053317e+02 </wgt>
<wgt id='143'> +4.8727911e+02 </wgt>
<wgt id='144'> +4.7388293e+02 </wgt>
<wgt id='145'> +4.7949224e+02 </wgt>
</rwgt>
</event>
<event>
 8      1 +4.8159400e+02 2.50690000e+02 7.54677100e-03 1.11289500e-01
       21 -1    0    0  501  502 +0.0000000000e+00 +0.0000000000e+00 +3.7321264636e+02 3.7321264636e+02 0.0000000000e+00 0.0000e+00 1.0000e+00
       21 -1    0    0  502  503 -0.0000000000e+00 -0.0000000000e+00 -3.6536859822e+02 3.6536859822e+02 0.0000000000e+00 0.0000e+00 -1.0000e+00
       -6  2    1    2    0  503 +1.7215640146e+02 +5.7394391580e+01 -2.6730452700e+02 3.6635524596e+02 1.7272091170e+02 0.0000e+00 0.0000e+00
        6  2    1    2  501    0 -1.7215640146e+02 -5.7394391580e+01 +2.7514857514e+02 3.7222599861e+02 1.7295523378e+02 0.0000e+00 0.0000e+00
        5  1    4    4  501    0 -1.7161801757e+01 +4.4781139340e+01 +5.8779374476e+01 7.6006465146e+01 4.7000000000e+00 0.0000e+00 -1.0000e+00
       24  1    4    4    0    0 -1.5499459970e+02 -1.0217553092e+02 +2.1636920067e+02 2.9621953346e+02 8.0419002446e+01 0.0000e+00 1.0000e+00
       -5  1    3    3    0  503 +7.2194884438e+01 -4.2866484927e+01 -1.2167259733e+02 1.4790519873e+02 4.7000000000e+00 0.0000e+00 1.0000e+00
      -24  1    3    3    0    0 +9.9961517017e+01 +1.0026087651e+02 -1.4563192967e+02 2.1845004724e+02 8.0419002446e+01 0.0000e+00 0.0000e+00
<mgrwt>
<rscale>  2 0.25064955E+03</rscale>
<asrwt>0</asrwt>
<pdfrwt beam="1">  1       21 0.57417330E-01 0.25068996E+03</pdfrwt>
<pdfrwt beam="2">  1       21 0.56210554E-01 0.25068996E+03</pdfrwt>
<totfact> 0.81685387E+03</totfact>
</mgrwt>
<rwgt>
<wgt id='1'> +6.3818197e+02 </wgt>
<wgt id='2'> +4.9102611e+02 </wgt>
<wgt id='3'> +4.8307718e+02 </wgt>
<wgt id='4'> +6.4028534e+02 </wgt>
<wgt id='5'> +4.1478684e+02 </wgt>
<wgt id='6'> +5.8268429e+02 </wgt>
<wgt id='7'> +4.4560883e+02 </wgt>
<wgt id='8'> +4.3847326e+02 </wgt>
<wgt id='9'> +5.8471222e+02 </wgt>
<wgt id='10'> +3.7715332e+02 </wgt>
<wgt id='11'> +5.2890149e+02 </wgt>
<wgt id='12'> +4.0566167e+02 </wgt>
<wgt id='13'> +3.9924374e+02 </wgt>
<wgt id='14'> +5.3072405e+02 </wgt>
<wgt id='15'> +3.4405639e+02 </wgt>
<wgt id='16'> +5.2746335e+02 </wgt>
<wgt id='17'> +4.1524812e+02 </wgt>
<wgt id='18'> +4.0886681e+02 </wgt>
<wgt id='19'> +5.2899054e+02 </wgt>
<wgt id='20'> +3.5373550e+02 </wgt>
<wgt id='21'> +3.7683990e+02 </wgt>
<wgt id='22'> +3.7111495e+02 </wgt>
<wgt id='23'> +4.8307718e+02 </wgt>
<wgt id='24'> +3.2164116e+02 </wgt>
<wgt id='25'> +4.3714201e+02 </wgt>
<wgt id='26'> +3.4305761e+02 </wgt>
<wgt id='27'> +3.3791187e+02 </wgt>
<wgt id='28'> +4.3847326e+02 </wgt>
<wgt id='29'> +2.9341567e+02 </wgt>
<wgt id='30'> +4.4650355e+02 </wgt>
<wgt id='31'> +3.5574595e+02 </wgt>
<wgt id='32'> +3.5053011e+02 </wgt>
<wgt id='33'> +4.4772695e+02 </wgt>
<wgt id='34'> +3.0523551e+02 </wgt>
<wgt id='35'> +4.0767464e+02 </wgt>
<wgt id='36'> +3.2284136e+02 </wgt>
<wgt id='37'> +3.1816465e+02 </wgt>
<wgt id='38'> +4.0886681e+02 </wgt>
<wgt id='39'> +2.7754156e+02 </wgt>
<wgt id='40'> +3.7004554e+02 </wgt>
<wgt id='41'> +2.9389984e+02 </wgt>
<wgt id='42'> +2.8969895e+02 </wgt>
<wgt id='43'> +3.7111495e+02 </wgt>
<wgt id='44'> +2.5318602e+02 </wgt>
<wgt id='45'> +4.8159400e+02 </wgt>
<wgt id='46'> +4.9507064e+02 </wgt>
<wgt id='47'> +5.0558507e+02 </wgt>
<wgt id='48'> +4.9096238e+02 </wgt>
<wgt id='49'> +4.7846600e+02 </wgt>
<wgt id='50'> +5.9886928e+02 </wgt>
<wgt id='51'> +4.7189472e+02 </wgt>
<wgt id='52'> +4.8198913e+02 </wgt>
<wgt id='53'> +4.7621831e+02 </wgt>
<wgt id='54'> +4.8526505e+02 </wgt>
<wgt id='55'> +4.3192711e+02 </wgt>
<wgt id='56'> +4.3342137e+02 </wgt>
<wgt id='57'> +4.7087157e+02 </wgt>
<wgt id='58'> +4.7166536e+02 </wgt>
<wgt id='59'> +4.9150689e+02 </wgt>
<wgt id='60'> +4.7634348e+02 </wgt>
<wgt id='61'> +4.3803023e+02 </wgt>
<wgt id='62'> +4.7695392e+02 </wgt>
<wgt id='63'> +4.8218176e+02 </wgt>
<wgt id='64'> +4.6521453e+02 </wgt>
<wgt id='65'> +5.6215346e+02 </wgt>
<wgt id='66'> +4.7304158e+02 </wgt>
<wgt id='67'> +4.8561383e+02 </wgt>
<wgt id='68'> +5.3363731e+02 </wgt>
<wgt id='69'> +4.8639325e+02 </wgt>
<wgt id='70'> +4.7153998e+02 </wgt>
<wgt id='71'> +4.8953265e+02 </wgt>
<wgt id='72'> +4.4632158e+02 </wgt>
<wgt id='73'> +4.6784595e+02 </wgt>
<wgt id='74'> +5.1159989e+02 </wgt>
<wgt id='75'> +4.9586919e+02 </wgt>
<wgt id='76'> +4.6568247e+02 </wgt>
<wgt id='77'> +4.7233479e+02 </wgt>
<wgt id='78'> +4.6495156e+02 </wgt>
<wgt id='79'> +4.7151035e+02 </wgt>
<wgt id='80'> +4.7100561e+02 </wgt>
<wgt id='81'> +4.6789636e+02 </wgt>
<wgt id='82'> +4.8436001e+02 </wgt>
<wgt id='83'> +4.9725816e+02 </wgt>
<wgt id='84'> +5.3418509e+02 </wgt>
<wgt id='85'> +5.0417727e+02 </wgt>
<wgt id='86'> +4.8689451e+02 </wgt>
<wgt id='87'> +4.8643603e+02 </wgt>
<wgt id='88'> +4.9251370e+02 </wgt>
<wgt id='89'> +4.9767298e+02 </wgt>
<wgt id='90'> +4.9213657e+02 </wgt>
<wgt id='91'> +5.0595523e+02 </wgt>
<wgt id='92'> +4.2116883e+02 </wgt>
<wgt id='93'> +4.8090146e+02 </wgt>
<wgt id='94'> +4.6858005e+02 </wgt>
<wgt id='95'> +4.5877871e+02 </wgt>
<wgt id='96'> +5.3606253e+02 </wgt>
<wgt id='97'> +4.7979338e+02 </wgt>
<wgt id='98'> +4.6401773e+02 </wgt>
<wgt id='99'> +4.6028021e+02 </wgt>
<wgt id='100'> +4.5295836e+02 </wgt>
<wgt id='101'> +5.3560649e+02 </wgt>
<wgt id='102'> +4.9315734e+02 </wgt>
<wgt id='103'> +5.3275758e+02 </wgt>
<wgt id='104'> +4.8829603e+02 </wgt>
<wgt id='105'> +4.9200450e+02 </wgt>
<wgt id='106'> +4.2299004e+02 </wgt>
<wgt id='107'> +4.5325089e+02 </wgt>
<wgt id='108'> +4.1127263e+02 </wgt>
<wgt id='109'> +4.4046302e+02 </wgt>
<wgt id='110'> +4.7734519e+02 </wgt>
<wgt id='111'> +4.6175520e+02 </wgt>
<wgt id='112'> +4.4750246e+02 </wgt>
<wgt id='113'> +4.3318924e+02 </wgt>
<wgt id='114'> +4.5933472e+02 </wgt>
<wgt id='115'> +4.5740258e+02 </wgt>
<wgt id='116'> +5.0218690e+02 </wgt>
<wgt id='117'> +4.7864896e+02 </wgt>
<wgt id='118'> +5.1183120e+02 </wgt>
<wgt id='119'> +4.5802447e+02 </wgt>
<wgt id='120'> +4.6454451e+02 </wgt>
<wgt id='121'> +4.6239774e+02 </wgt>
<wgt id='122'> +4.7306114e+02 </wgt>
<wgt id='123'> +4.9165749e+02 </wgt>
<wgt id='124'> +5.3875163e+02 </wgt>
<wgt id='125'> +5.3871009e+02 </wgt>
<wgt id='126'> +5.0692709e+02 </wgt>
<wgt id='127'> +5.0176136e+02 </wgt>
<wgt id='128'> +4.3437229e+02 </wgt>
<wgt id='129'> +5.5149604e+02 </wgt>
<wgt id='130'> +4.8729659e+02 </wgt>
<wgt id='131'> +5.1262587e+02 </wgt>
<wgt id='132'> +4.9446721e+02 </wgt>
<wgt id='133'> +4.9420671e+02 </wgt>
<wgt id='134'> +4.5815537e+02 </wgt>
<wgt id='135'> +4.9292627e+02 </wgt>
<wgt id='136'> +4.7782214e+02 </wgt>
<wgt id='137'> +4.5987151e+02 </wgt>
<wgt id='138'> +4.5496696e+02 </wgt>
<wgt id='139'> +4.9863205e+02 </wgt>
<wgt id='140'> +5.0190891e+02 </wgt>
<wgt id='141'> +4.8669484e+02 </wgt>
<wgt id='142'> +4.6289946e+02 </wgt>
<wgt id='143'> +4.8674867e+02 </wgt>
<wgt id='144'> +4.7045785e+02 </wgt>
<wgt id='145'> +4.8249410e+02 </wgt>
</rwgt>
</event>
<event>
 8      1 +4.8159400e+02 3.05304100e+02 7.54677100e-03 1.08270400e-01
       21 -1    0    0  501  502 +0.0000000000e+00 +0.0000000000e+00 +1.6434427111e+02 1.6434427111e+02 0.0000000000e+00 0.0000e+00 -1.0000e+00
       21 -1    0    0  502  503 -0.0000000000e+00 -0.0000000000e+00 -5.6892059108e+02 5.6892059108e+02 0.0000000000e+00 0.0000e+00 1.0000e+00
       -6  2    1    2    0  503 +1.6731462757e+02 +1.8745963474e+02 -1.7567360659e+02 3.5223832148e+02 1.7342237401e+02 0.0000e+00 0.0000e+00
        6  2    1    2  501    0 -1.6731462757e+02 -1.8745963474e+02 -2.2890271338e+02 3.8102654072e+02 1.7219022411e+02 0.0000e+00 0.0000e+00
        5  1    4    4  501    0 -1.1751909557e+02 -1.6062889843e+02 -1.1255162939e+02 2.2869704877e+02 4.7000000000e+00 0.0000e+00 -1.0000e+00
       24  1    4    4    0    0 -4.9795531999e+01 -2.6830736313e+01 -1.1635108399e+02 1.5232949195e+02 8.0419002446e+01 0.0000e+00 -1.0000e+00
       -5  1    3    3    0  503 +1.1655602412e+02 +1.7263093834e+02 -1.3117112665e+02 2.4620053229e+02 4.7000000000e+00 0.0000e+00 1.0000e+00
      -24  1    3    3    0    0 +5.0758603453e+01 +1.4828696403e+01 -4.4502479932e+01 1.0603778919e+02 8.0419002446e+01 0.0000e+00 0.0000e+00
<mgrwt>
<rscale>  2 0.30512944E+03</rscale>
<asrwt>0</asrwt>
<pdfrwt beam="1">  1       21 0.25283734E-01 0.30530414E+03</pdfrwt>
<pdfrwt beam="2">  1       21 0.87526245E-01 0.30530414E+03</pdfrwt>
<totfact> 0.15661197E+04</totfact>
</mgrwt>
<rwgt>
<wgt id='1'> +6.2846257e+02 </wgt>
<wgt id='2'> +4.9896620e+02 </wgt>
<wgt id='3'> +4.8407766e+02 </wgt>
<wgt id='4'> +6.3190936e+02 </wgt>
<wgt id='5'> +4.8125027e+02 </wgt>
<wgt id='6'> +5.7688981e+02 </wgt>
<wgt id='7'> +4.5714897e+02 </wgt>
<wgt id='8'> +4.4360984e+02 </wgt>
<wgt id='9'> +5.8024565e+02 </wgt>
<wgt id='10'> +4.4103884e+02 </wgt>
<wgt id='11'> +5.2868474e+02 </wgt>
<wgt id='12'> +4.1974926e+02 </wgt>
<wgt id='13'> +4.0743212e+02 </wgt>
<wgt id='14'> +5.3173839e+02 </wgt>
<wgt id='15'> +4.0509306e+02 </wgt>
<wgt id='16'> +5.2464750e+02 </wgt>
<wgt id='17'> +4.2323378e+02 </wgt>
<wgt id='18'> +4.1125051e+02 </wgt>
<wgt id='19'> +5.2717880e+02 </wgt>
<wgt id='20'> +4.0897103e+02 </wgt>
<wgt id='21'> +3.8776352e+02 </wgt>
<wgt id='22'> +3.7687087e+02 </wgt>
<wgt id='23'> +4.8407766e+02 </wgt>
<wgt id='24'> +3.7479897e+02 </wgt>
<wgt id='25'> +4.4135187e+02 </wgt>
<wgt id='26'> +3.5604028e+02 </wgt>
<wgt id='27'> +3.4613592e+02 </wgt>
<wgt id='28'> +4.4360984e+02 </wgt>
<wgt id='29'> +3.4425191e+02 </wgt>
<wgt id='30'> +4.4583247e+02 </wgt>
<wgt id='31'> +3.6351947e+02 </wgt>
<wgt id='32'> +3.5370254e+02 </wgt>
<wgt id='33'> +4.4786729e+02 </wgt>
<wgt id='34'> +3.5183305e+02 </wgt>
<wgt id='35'> +4.0924667e+02 </wgt>
<wgt id='36'> +3.3305373e+02 </wgt>
<wgt id='37'> +3.2413379e+02 </wgt>
<wgt id='38'> +4.1125051e+02 </wgt>
<wgt id='39'> +3.2243522e+02 </wgt>
<wgt id='40'> +3.7504990e+02 </wgt>
<wgt id='41'> +3.0580634e+02 </wgt>
<wgt id='42'> +2.9769970e+02 </wgt>
<wgt id='43'> +3.7687087e+02 </wgt>
<wgt id='44'> +2.9615594e+02 </wgt>
<wgt id='45'> +4.8159400e+02 </wgt>
<wgt id='46'> +4.9323873e+02 </wgt>
<wgt id='47'> +5.0122580e+02 </wgt>
<wgt id='48'> +4.8789718e+02 </wgt>
<wgt id='49'> +4.7455298e+02 </wgt>
<wgt id='50'> +5.8437777e+02 </wgt>
<wgt id='51'> +4.7013587e+02 </wgt>
<wgt id='52'> +4.7948859e+02 </wgt>
<wgt id='53'> +4.7718599e+02 </wgt>
<wgt id='54'> +4.8856643e+02 </wgt>
<wgt id='55'> +4.4764900e+02 </wgt>
<wgt id='56'> +4.3830509e+02 </wgt>
<wgt id='57'> +4.7848917e+02 </wgt>
<wgt id='58'> +4.6959282e+02 </wgt>
<wgt id='59'> +4.9539231e+02 </wgt>
<wgt id='60'> +4.7689123e+02 </wgt>
<wgt id='61'> +4.2844779e+02 </wgt>
<wgt id='62'> +4.7344789e+02 </wgt>
<wgt id='63'> +4.8382471e+02 </wgt>
<wgt id='64'> +4.6994845e+02 </wgt>
<wgt id='65'> +5.4533523e+02 </wgt>
<wgt id='66'> +4.7422355e+02 </wgt>
<wgt id='67'> +4.8493101e+02 </wgt>
<wgt id='68'> +5.3328371e+02 </wgt>
<wgt id='69'> +4.8610249e+02 </wgt>
<wgt id='70'> +4.7527140e+02 </wgt>
<wgt id='71'> +4.8628672e+02 </wgt>
<wgt id='72'> +4.5414722e+02 </wgt>
<wgt id='73'> +4.6535053e+02 </wgt>
<wgt id='74'> +5.1130806e+02 </wgt>
<wgt id='75'> +4.9546470e+02 </wgt>
<wgt id='76'> +4.7186806e+02 </wgt>
<wgt id='77'> +4.7121619e+02 </wgt>
<wgt id='78'> +4.6149296e+02 </wgt>
<wgt id='79'> +4.7511719e+02 </wgt>
<wgt id='80'> +4.6803568e+02 </wgt>
<wgt id='81'> +4.7151871e+02 </wgt>
<wgt id='82'> +4.7849280e+02 </wgt>
<wgt id='83'> +4.9200617e+02 </wgt>
<wgt id='84'> +5.2347702e+02 </wgt>
<wgt id='85'> +4.9430869e+02 </wgt>
<wgt id='86'> +4.8635766e+02 </wgt>
<wgt id='87'> +4.8490722e+02 </wgt>
<wgt id='88'> +4.8797689e+02 </wgt>
<wgt id='89'> +4.8819481e+02 </wgt>
<wgt id='90'> +4.8906477e+02 </wgt>
<wgt id='91'> +4.9618936e+02 </wgt>
<wgt id='92'> +4.3191855e+02 </wgt>
<wgt id='93'> +4.8013229e+02 </wgt>
<wgt id='94'> +4.6726637e+02 </wgt>
<wgt id='95'> +4.6917061e+02 </wgt>
<wgt id='96'> +5.2403210e+02 </wgt>
<wgt id='97'> +4.7651807e+02 </wgt>
<wgt id='98'> +4.7005019e+02 </wgt>
<wgt id='99'> +4.5593024e+02 </wgt>
<wgt id='100'> +4.4761910e+02 </wgt>
<wgt id='101'> +5.3319286e+02 </wgt>
<wgt id='102'> +4.9581193e+02 </wgt>
<wgt id='103'> +5.2122561e+02 </wgt>
<wgt id='104'> +4.8911750e+02 </wgt>
<wgt id='105'> +4.9421200e+02 </wgt>
<wgt id='106'> +4.3387436e+02 </wgt>
<wgt id='107'> +4.5700696e+02 </wgt>
<wgt id='108'> +4.2139021e+02 </wgt>
<wgt id='109'> +4.4917586e+02 </wgt>
<wgt id='110'> +4.7519968e+02 </wgt>
<wgt id='111'> +4.6605013e+02 </wgt>
<wgt id='112'> +4.5504661e+02 </wgt>
<wgt id='113'> +4.4344437e+02 </wgt>
<wgt id='114'> +4.6822518e+02 </wgt>
<wgt id='115'> +4.5942321e+02 </wgt>
<wgt id='116'> +5.0114635e+02 </wgt>
<wgt id='117'> +4.7802730e+02 </wgt>
<wgt id='118'> +5.0715740e+02 </wgt>
<wgt id='119'> +4.6694605e+02 </wgt>
<wgt id='120'> +4.7077003e+02 </wgt>
<wgt id='121'> +4.6792105e+02 </wgt>
<wgt id='122'> +4.7495000e+02 </wgt>
<wgt id='123'> +4.8755072e+02 </wgt>
<wgt id='124'> +5.3466654e+02 </wgt>
<wgt id='125'> +5.3937082e+02 </wgt>
<wgt id='126'> +5.0015031e+02 </wgt>
<wgt id='127'> +4.9567319e+02 </wgt>
<wgt id='128'> +4.3922551e+02 </wgt>
<wgt id='129'> +5.4143162e+02 </wgt>
<wgt id='130'> +4.8180005e+02 </wgt>
<wgt id='131'> +5.0350466e+02 </wgt>
<wgt id='132'> +4.9944839e+02 </wgt>
<wgt id='133'> +4.9535188e+02 </wgt>
<wgt id='134'> +4.6513210e+02 </wgt>
<wgt id='135'> +4.8863946e+02 </wgt>
<wgt id='136'> +4.8988737e+02 </wgt>
<wgt id='137'> +4.6352132e+02 </wgt>
<wgt id='138'> +4.5715343e+02 </wgt>
<wgt id='139'> +4.9637592e+02 </wgt>
<wgt id='140'> +4.9725452e+02 </wgt>
<wgt id='141'> +4.9079781e+02 </wgt>
<wgt id='142'> +4.5329376e+02 </wgt>
<wgt id='143'> +4.8826520e+02 </wgt>
<wgt id='144'> +4.6926535e+02 </wgt>
<wgt id='145'> +4.7885146e+02 </wgt>
</rwgt>
</event>
<event>
 8      1 +4.8159400e+02 2.17345400e+02 7.54677100e-03 1.13632500e-01
       21 -1    0    0  501  502 +0.0000000000e+00 +0.0000000000e+00 +1.2575732442e+02 1.2575732442e+02 0.0000000000e+00 0.0000e+00 1.0000e+00
       21 -1    0    0  502  503 -0.0000000000e+00 -0.0000000000e+00 -4.9399214135e+02 4.9399214135e+02 0.0000000000e+00 0.0000e+00 -1.0000e+00
        6  2    1    2  501    0 +1.0548164286e+02 -7.3246930505e+01 -2.9116426286e+01 2.1695880243e+02 1.7242930686e+02 0.0000e+00 0.0000e+00
       -6  2    1    2    0  503 -1.0548164286e+02 +7.3246930505e+01 -3.3911839064e+02 4.0279066334e+02 1.7534978128e+02 0.0000e+00 0.0000e+00
        5  1    3    3  501    0 +1.0148629968e+01 +3.3177951149e+00 +4.9482958454e+01 5.0839508574e+01 4.7000000000e+00 0.0000e+00 -1.0000e+00
       24  1    3    3    0    0 +9.5333012891e+01 -7.6564725620e+01 -7.8599384740e+01 1.6611929386e+02 8.0419002446e+01 0.0000e+00 -1.0000e+00
       -5  1    4    4    0  503 -8.2252397992e+01 -2.5715101114e+01 -1.1344679510e+02 1.4254469025e+02 4.7000000000e+00 0.0000e+00 1.0000e+00
      -24  1    4    4    0    0 -2.3229244867e+01 +9.8962031619e+01 -2.2567159554e+02 2.6024597309e+02 8.0419002446e+01 0.0000e+00 0.0000e+00
<mgrwt>
<rscale>  2 0.21675572E+03</rscale>
<asrwt>0</asrwt>
<pdfrwt beam="1">  1       21 0.19347280E-01 0.21734543E+03</pdfrwt>
<pdfrwt beam="2">  1       21 0.75998792E-01 0.21734543E+03</pdfrwt>
<totfact> 0.37422580E+04</totfact>
</mgrwt>
<rwgt>
<wgt id='1'> +6.2420608e+02 </wgt>
<wgt id='2'> +5.2454438e+02 </wgt>
<wgt id='3'> +5.0842917e+02 </wgt>
<wgt id='4'> +6.6135459e+02 </wgt>
<wgt id='5'> +4.5810243e+02 </wgt>
<wgt id='6'> +5.8719814e+02 </wgt>
<wgt id='7'> +4.8758070e+02 </wgt>
<wgt id='8'> +4.7217391e+02 </wgt>
<wgt id='9'> +6.2478170e+02 </wgt>
<wgt id='10'> +4.2537189e+02 </wgt>
<wgt id='11'> +5.4515885e+02 </wgt>
<wgt id='12'> +4.5286837e+02 </wgt>
<wgt id='13'> +4.3860272e+02 </wgt>
<wgt id='14'> +5.8022954e+02 </wgt>
<wgt id='15'> +3.9529300e+02 </wgt>
<wgt id='16'> +5.1194628e+02 </wgt>
<wgt id='17'> +4.4003549e+02 </wgt>
<wgt id='18'> +4.2768073e+02 </wgt>
<wgt id='19'> +5.3819112e+02 </wgt>
<wgt id='20'> +3.8774534e+02 </wgt>
<wgt id='21'> +4.0902699e+02 </wgt>
<wgt id='22'> +3.9718351e+02 </wgt>
<wgt id='23'> +5.0842917e+02 </wgt>
<wgt id='24'> +3.6004168e+02 </wgt>
<wgt id='25'> +4.4711523e+02 </wgt>
<wgt id='26'> +3.7990714e+02 </wgt>
<wgt id='27'> +3.6894407e+02 </wgt>
<wgt id='28'> +4.7217391e+02 </wgt>
<wgt id='29'> +3.3458242e+02 </wgt>
<wgt id='30'> +4.3213060e+02 </wgt>
<wgt id='31'> +3.7477012e+02 </wgt>
<wgt id='32'> +3.6481492e+02 </wgt>
<wgt id='33'> +4.5271590e+02 </wgt>
<wgt id='34'> +3.3243456e+02 </wgt>
<wgt id='35'> +4.0651043e+02 </wgt>
<wgt id='36'> +3.4836076e+02 </wgt>
<wgt id='37'> +3.3880056e+02 </wgt>
<wgt id='38'> +4.2768073e+02 </wgt>
<wgt id='39'> +3.0868274e+02 </wgt>
<wgt id='40'> +3.7740712e+02 </wgt>
<wgt id='41'> +3.2355992e+02 </wgt>
<wgt id='42'> +3.1471211e+02 </wgt>
<wgt id='43'> +3.9718351e+02 </wgt>
<wgt id='44'> +2.8685517e+02 </wgt>
<wgt id='45'> +4.8159400e+02 </wgt>
<wgt id='46'> +4.8797380e+02 </wgt>
<wgt id='47'> +4.9895802e+02 </wgt>
<wgt id='48'> +4.8543831e+02 </wgt>
<wgt id='49'> +4.7744825e+02 </wgt>
<wgt id='50'> +5.7208303e+02 </wgt>
<wgt id='51'> +4.7125510e+02 </wgt>
<wgt id='52'> +4.8018119e+02 </wgt>
<wgt id='53'> +4.8081577e+02 </wgt>
<wgt id='54'> +4.8647102e+02 </wgt>
<wgt id='55'> +4.4138357e+02 </wgt>
<wgt id='56'> +4.4236841e+02 </wgt>
<wgt id='57'> +4.7524195e+02 </wgt>
<wgt id='58'> +4.7722844e+02 </wgt>
<wgt id='59'> +4.8737662e+02 </wgt>
<wgt id='60'> +4.7174649e+02 </wgt>
<wgt id='61'> +4.4266672e+02 </wgt>
<wgt id='62'> +4.7441014e+02 </wgt>
<wgt id='63'> +4.8261271e+02 </wgt>
<wgt id='64'> +4.7311078e+02 </wgt>
<wgt id='65'> +5.5345459e+02 </wgt>
<wgt id='66'> +4.7197624e+02 </wgt>
<wgt id='67'> +4.8527762e+02 </wgt>
<wgt id='68'> +5.2499689e+02 </wgt>
<wgt id='69'> +4.7725230e+02 </wgt>
<wgt id='70'> +4.7411621e+02 </wgt>
<wgt id='71'> +4.8879246e+02 </wgt>
<wgt id='72'> +4.6275895e+02 </wgt>
<wgt id='73'> +4.7047144e+02 </wgt>
<wgt id='74'> +5.0377826e+02 </wgt>
<wgt id='75'> +4.9311188e+02 </wgt>
<wgt id='76'> +4.7072945e+02 </wgt>
<wgt id='77'> +4.6872937e+02 </wgt>
<wgt id='78'> +4.7042601e+02 </wgt>
<wgt id='79'> +4.6932559e+02 </wgt>
<wgt id='80'> +4.7247917e+02 </wgt>
<wgt id='81'> +4.7202029e+02 </wgt>
<wgt id='82'> +4.8453069e+02 </wgt>
<wgt id='83'> +4.9078856e+02 </wgt>
<wgt id='84'> +5.2469653e+02 </wgt>
<wgt id='85'> +4.9935051e+02 </wgt>
<wgt id='86'> +4.8208950e+02 </wgt>
<wgt id='87'> +4.8368657e+02 </wgt>
<wgt id='88'> +4.8765655e+02 </wgt>
<wgt id='89'> +4.9127935e+02 </wgt>
<wgt id='90'> +4.8940331e+02 </wgt>
<wgt id='91'> +5.0325260e+02 </wgt>
<wgt id='92'> +4.3881988e+02 </wgt>
<wgt id='93'> +4.7697618e+02 </wgt>
<wgt id='94'> +4.7312054e+02 </wgt>
<wgt id='95'> +4.6727937e+02 </wgt>
<wgt id='96'> +5.2054049e+02 </wgt>
<wgt id='97'> +4.8231082e+02 </wgt>
<wgt id='98'> +4.6513077e+02 </wgt>
<wgt id='99'> +4.6188808e+02 </wgt>
<wgt id='100'> +4.6195879e+02 </wgt>
<wgt id='101'> +5.2067306e+02 </wgt>
<wgt id='102'> +4.8296951e+02 </wgt>
<wgt id='103'> +5.2214133e+02 </wgt>
<wgt id='104'> +4.8423110e+02 </wgt>
<wgt id='105'> +4.9776513e+02 </wgt>
<wgt id='106'> +4.3899300e+02 </wgt>
<wgt id='107'> +4.6545244e+02 </wgt>
<wgt id='108'> +4.2621769e+02 </wgt>
<wgt id='109'> +4.5130325e+02 </wgt>
<wgt id='110'> +4.7933403e+02 </wgt>
<wgt id='111'> +4.6788942e+02 </wgt>
<wgt id='112'> +4.5634491e+02 </wgt>
<wgt id='113'> +4.4308905e+02 </wgt>
<wgt id='114'> +4.7360339e+02 </wgt>
<wgt id='115'> +4.6803042e+02 </wgt>
<wgt id='116'> +4.9135561e+02 </wgt>
<wgt id='117'> +4.8171445e+02 </wgt>
<wgt id='118'> +5.0093253e+02 </wgt>
<wgt id='119'> +4.6540771e+02 </wgt>
<wgt id='120'> +4.7322596e+02 </wgt>
<wgt id='121'> +4.6910971e+02 </wgt>
<wgt id='122'> +4.7572043e+02 </wgt>
<wgt id='123'> +4.8704549e+02 </wgt>
<wgt id='124'> +5.2519714e+02 </wgt>
<wgt id='125'> +5.2775452e+02 </wgt>
<wgt id='126'> +4.9939216e+02 </wgt>
<wgt id='127'> +4.9579585e+02 </wgt>
<wgt id='128'> +4.4162048e+02 </wgt>
<wgt id='129'> +5.4325788e+02 </wgt>
<wgt id='130'> +4.8154352e+02 </wgt>
<wgt id='131'> +5.0891858e+02 </wgt>
<wgt id='132'> +4.9115825e+02 </wgt>
<wgt id='133'> +4.8754398e+02 </wgt>
<wgt id='134'> +4.6044050e+02 </wgt>
<wgt id='135'> +4.9119893e+02 </wgt>
<wgt id='136'> +4.7884175e+02 </wgt>
<wgt id='137'> +4.5820802e+02 </wgt>
<wgt id='138'> +4.4693204e+02 </wgt>
<wgt id='139'> +4.9404815e+02 </wgt>
<wgt id='140'> +5.0341287e+02 </wgt>
<wgt id='141'> +4.8537176e+02 </wgt>
<wgt id='142'> +4.6704870e+02 </wgt>
<wgt id='143'> +4.8454971e+02 </wgt>
<wgt id='144'> +4.7559416e+02 </wgt>
<wgt id='145'> +4.8108265e+02 </wgt>
</rwgt>
</event>
<event>
 8      1 +4.8159400e+02 1.85996800e+02 7.54677100e-03 1.16255500e-01
       21 -1    0    0  501  502 +0.0000000000e+00 +0.0000000000e+00 +2.6861234248e+01 2.6861234248e+01 0.0000000000e+00 0.0000e+00 1.0000e+00
       21 -1    0    0  502  503 -0.0000000000e+00 -0.0000000000e+00 -1.2948571128e+03 1.2948571128e+03 0.0000000000e+00 0.0000e+00 1.0000e+00
       -6  2    1    2    0  503 -6.0101261722e+01 +2.1911907757e+01 -5.4923644199e+02 5.7928321412e+02 1.7267333201e+02 0.0000e+00 0.0000e+00
        6  2    1    2  501    0 +6.0101261722e+01 -2.1911907757e+01 -7.1875943653e+02 7.4243513290e+02 1.7464966532e+02 0.0000e+00 0.0000e+00
        5  1    4    4  501    0 -1.7333099668e+01 -1.3200097330e+00 -3.6533331254e+00 1.8374319382e+01 4.7000000000e+00 0.0000e+00 -1.0000e+00
       24  1    4    4    0    0 +7.7434361391e+01 -2.0591898024e+01 -7.1510610341e+02 7.2406081352e+02 8.0419002446e+01 0.0000e+00 0.0000e+00
       -5  1    3    3    0  503 +1.5250441858e+01 -4.8519892493e+01 -1.9813918634e+02 2.0461667359e+02 4.7000000000e+00 0.0000e+00 1.0000e+00
      -24  1    3    3    0    0 -7.5351703580e+01 +7.0431800249e+01 -3.5109725565e+02 3.7466654054e+02 8.0419002446e+01 0.0000e+00 1.0000e+00
<mgrwt>
<rscale>  2 0.18553140E+03</rscale>
<asrwt>0</asrwt>
<pdfrwt beam="1">  1       21 0.41324983E-02 0.18599677E+03</pdfrwt>
<pdfrwt beam="2">  1       21 0.19920875E+00 0.18599677E+03</pdfrwt>
<totfact> 0.50619495E+04</totfact>
</mgrwt>
<rwgt>
<wgt id='1'> +6.3776117e+02 </wgt>
<wgt id='2'> +5.5948657e+02 </wgt>
<wgt id='3'> +5.1502105e+02 </wgt>
<wgt id='4'> +6.8490609e+02 </wgt>
<wgt id='5'> +4.8076215e+02 </wgt>
<wgt id='6'> +5.9201082e+02 </wgt>
<wgt id='7'> +5.1480178e+02 </wgt>
<wgt id='8'> +4.7130894e+02 </wgt>
<wgt id='9'> +6.3768433e+02 </wgt>
<wgt id='10'> +4.3894338e+02 </wgt>
<wgt id='11'> +5.4052531e+02 </wgt>
<wgt id='12'> +4.7012639e+02 </wgt>
<wgt id='13'> +4.3059503e+02 </wgt>
<wgt id='14'> +5.8356125e+02 </wgt>
<wgt id='15'> +4.0119978e+02 </wgt>
<wgt id='16'> +5.1881138e+02 </wgt>
<wgt id='17'> +4.6283657e+02 </wgt>
<wgt id='18'> +4.3047673e+02 </wgt>
<wgt id='19'> +5.5315935e+02 </wgt>
<wgt id='20'> +4.0437771e+02 </wgt>
<wgt id='21'> +4.2587097e+02 </wgt>
<wgt id='22'> +3.9394027e+02 </wgt>
<wgt id='23'> +5.1502105e+02 </wgt>
<wgt id='24'> +3.6920319e+02 </wgt>
<wgt id='25'> +4.3971113e+02 </wgt>
<wgt id='26'> +3.8891315e+02 </wgt>
<wgt id='27'> +3.5990984e+02 </wgt>
<wgt id='28'> +4.7130894e+02 </wgt>
<wgt id='29'> +3.3745636e+02 </wgt>
<wgt id='30'> +4.3631419e+02 </wgt>
<wgt id='31'> +3.9193297e+02 </wgt>
<wgt id='32'> +3.6599415e+02 </wgt>
<wgt id='33'> +4.6235436e+02 </wgt>
<wgt id='34'> +3.4492147e+02 </wgt>
<wgt id='35'> +4.0501481e+02 </wgt>
<wgt id='36'> +3.6063026e+02 </wgt>
<wgt id='37'> +3.3493061e+02 </wgt>
<wgt id='38'> +4.3047673e+02 </wgt>
<wgt id='39'> +3.1491871e+02 </wgt>
<wgt id='40'> +3.6979182e+02 </wgt>
<wgt id='41'> +3.2933415e+02 </wgt>
<wgt id='42'> +3.0599771e+02 </wgt>
<wgt id='43'> +3.9394027e+02 </wgt>
<wgt id='44'> +2.8783967e+02 </wgt>
<wgt id='45'> +4.8159400e+02 </wgt>
<wgt id='46'> +4.9444693e+02 </wgt>
<wgt id='47'> +4.9746385e+02 </wgt>
<wgt id='48'> +4.8006426e+02 </wgt>
<wgt id='49'> +4.4488156e+02 </wgt>
<wgt id='50'> +5.5562644e+02 </wgt>
<wgt id='51'> +4.5380942e+02 </wgt>
<wgt id='52'> +4.4953085e+02 </wgt>
<wgt id='53'> +4.8303424e+02 </wgt>
<wgt id='54'> +5.1145874e+02 </wgt>
<wgt id='55'> +5.4497128e+02 </wgt>
<wgt id='56'> +4.6417806e+02 </wgt>
<wgt id='57'> +5.1319011e+02 </wgt>
<wgt id='58'> +4.3807324e+02 </wgt>
<wgt id='59'> +5.2452776e+02 </wgt>
<wgt id='60'> +4.8532685e+02 </wgt>
<wgt id='61'> +4.2073029e+02 </wgt>
<wgt id='62'> +4.4375287e+02 </wgt>
<wgt id='63'> +5.0867120e+02 </wgt>
<wgt id='64'> +4.8394943e+02 </wgt>
<wgt id='65'> +4.3345325e+02 </wgt>
<wgt id='66'> +4.8791511e+02 </wgt>
<wgt id='67'> +4.8428049e+02 </wgt>
<wgt id='68'> +5.8367806e+02 </wgt>
<wgt id='69'> +5.1933035e+02 </wgt>
<wgt id='70'> +5.2132027e+02 </wgt>
<wgt id='71'> +4.4674687e+02 </wgt>
<wgt id='72'> +4.4342637e+02 </wgt>
<wgt id='73'> +4.3779276e+02 </wgt>
<wgt id='74'> +5.5295368e+02 </wgt>
<wgt id='75'> +5.2464046e+02 </wgt>
<wgt id='76'> +4.9583100e+02 </wgt>
<wgt id='77'> +4.5619817e+02 </wgt>
<wgt id='78'> +4.1531453e+02 </wgt>
<wgt id='79'> +5.1860640e+02 </wgt>
<wgt id='80'> +4.2660688e+02 </wgt>
<wgt id='81'> +5.0044733e+02 </wgt>
<wgt id='82'> +4.7238772e+02 </wgt>
<wgt id='83'> +4.7244733e+02 </wgt>
<wgt id='84'> +4.6553796e+02 </wgt>
<wgt id='85'> +4.3460053e+02 </wgt>
<wgt id='86'> +5.0569358e+02 </wgt>
<wgt id='87'> +4.7508602e+02 </wgt>
<wgt id='88'> +4.6769968e+02 </wgt>
<wgt id='89'> +4.0979962e+02 </wgt>
<wgt id='90'> +4.4886734e+02 </wgt>
<wgt id='91'> +4.1868995e+02 </wgt>
<wgt id='92'> +4.5447983e+02 </wgt>
<wgt id='93'> +4.8826842e+02 </wgt>
<wgt id='94'> +4.4277734e+02 </wgt>
<wgt id='95'> +5.0760713e+02 </wgt>
<wgt id='96'> +5.0087453e+02 </wgt>
<wgt id='97'> +4.3597941e+02 </wgt>
<wgt id='98'> +5.1948405e+02 </wgt>
<wgt id='99'> +4.0660592e+02 </wgt>
<wgt id='100'> +3.6992058e+02 </wgt>
<wgt id='101'> +5.5935129e+02 </wgt>
<wgt id='102'> +5.4139734e+02 </wgt>
<wgt id='103'> +4.5806265e+02 </wgt>
<wgt id='104'> +5.1392003e+02 </wgt>
<wgt id='105'> +4.9278138e+02 </wgt>
<wgt id='106'> +4.7206908e+02 </wgt>
<wgt id='107'> +4.6832486e+02 </wgt>
<wgt id='108'> +4.5358578e+02 </wgt>
<wgt id='109'> +4.7911845e+02 </wgt>
<wgt id='110'> +4.4365956e+02 </wgt>
<wgt id='111'> +4.6795331e+02 </wgt>
<wgt id='112'> +5.0310894e+02 </wgt>
<wgt id='113'> +5.1082436e+02 </wgt>
<wgt id='114'> +5.0049396e+02 </wgt>
<wgt id='115'> +4.4043719e+02 </wgt>
<wgt id='116'> +5.2758108e+02 </wgt>
<wgt id='117'> +4.7107734e+02 </wgt>
<wgt id='118'> +4.9489520e+02 </wgt>
<wgt id='119'> +5.3022479e+02 </wgt>
<wgt id='120'> +4.8106557e+02 </wgt>
<wgt id='121'> +4.7537399e+02 </wgt>
<wgt id='122'> +4.7143038e+02 </wgt>
<wgt id='123'> +4.5748802e+02 </wgt>
<wgt id='124'> +5.4019672e+02 </wgt>
<wgt id='125'> +6.0274687e+02 </wgt>
<wgt id='126'> +4.7063603e+02 </wgt>
<wgt id='127'> +4.5987433e+02 </wgt>
<wgt id='128'> +4.6500646e+02 </wgt>
<wgt id='129'> +4.8774535e+02 </wgt>
<wgt id='130'> +4.6844787e+02 </wgt>
<wgt id='131'> +4.4167240e+02 </wgt>
<wgt id='132'> +5.2823701e+02 </wgt>
<wgt id='133'> +5.2561961e+02 </wgt>
<wgt id='134'> +5.0893027e+02 </wgt>
<wgt id='135'> +4.6033501e+02 </wgt>
<wgt id='136'> +5.7032437e+02 </wgt>
<wgt id='137'> +5.0591306e+02 </wgt>
<wgt id='138'> +4.9266743e+02 </wgt>
<wgt id='139'> +4.9705639e+02 </wgt>
<wgt id='140'> +4.6854979e+02 </wgt>
<wgt id='141'> +5.4653238e+02 </wgt>
<wgt id='142'> +3.3881459e+02 </wgt>
<wgt id='143'> +4.9469989e+02 </wgt>
<wgt id='144'> +4.3878049e+02 </wgt>
<wgt id='145'> +4.4250919e+02 </wgt>
</rwgt>
</event>
<event>
 8      1 +4.8159400e+02 2.35666800e+02 7.54677100e-03 1.12304700e-01
       21 -1    0    0  503  502 +0.0000000000e+00 +0.0000000000e+00 +3.1706635970e+01 3.1706635970e+01 0.0000000000e+00 0.0000e+00 -1.0000e+00
       21 -1    0    0  501  503 -0.0000000000e+00 -0.0000000000e+00 -1.7801505669e+03 1.7801505669e+03 0.0000000000e+00 0.0000e+00 -1.0000e+00
        6  2    1    2  501    0 -8.2524798695e+01 -1.3334215390e+02 -1.0184766629e+03 1.0453867910e+03 1.7592145258e+02 0.0000e+00 0.0000e+00
       -6  2    1    2    0  502 +8.2524798695e+01 +1.3334215390e+02 -7.2996726800e+02 7.6647041186e+02 1.7330380117e+02 0.0000e+00 0.0000e+00
        5  1    3    3  501    0 -5.5954239407e+01 -7.5194885457e+01 -7.8130051619e+02 7.8691659934e+02 4.7000000000e+00 0.0000e+00 -1.0000e+00
       24  1    3    3    0    0 -2.6570559288e+01 -5.8147268444e+01 -2.3717614673e+02 2.5847019167e+02 8.0419002446e+01 0.0000e+00 1.0000e+00
       -5  1    4    4    0  502 +1.8834975907e+01 +1.1184012814e+02 -5.1435837412e+02 5.2673484564e+02 4.7000000000e+00 0.0000e+00 1.0000e+00
      -24  1    4    4    0    0 +6.3689822788e+01 +2.1502025763e+01 -2.1560889388e+02 2.3973556623e+02 8.0419002446e+01 0.0000e+00 0.0000e+00
<mgrwt>
<rscale>  2 0.23517838E+03</rscale>
<asrwt>0</asrwt>
<pdfrwt beam="1">  1       21 0.48779428E-02 0.23566678E+03</pdfrwt>
<pdfrwt beam="2">  1       21 0.27386939E+00 0.23566678E+03</pdfrwt>
<totfact> 0.13024035E+04</totfact>
</mgrwt>
<rwgt>
<wgt id='1'> +6.6318237e+02 </wgt>
<wgt id='2'> +5.5372709e+02 </wgt>
<wgt id='3'> +5.0964672e+02 </wgt>
<wgt id='4'> +7.0480936e+02 </wgt>
<wgt id='5'> +4.7961459e+02 </wgt>
<wgt id='6'> +5.8460576e+02 </wgt>
<wgt id='7'> +4.8516263e+02 </wgt>
<wgt id='8'> +4.4670257e+02 </wgt>
<wgt id='9'> +6.2294668e+02 </wgt>
<wgt id='10'> +4.2094942e+02 </wgt>
<wgt id='11'> +5.1306155e+02 </wgt>
<wgt id='12'> +4.2724193e+02 </wgt>
<wgt id='13'> +3.9401893e+02 </wgt>
<wgt id='14'> +5.4600937e+02 </wgt>
<wgt id='15'> +3.7175506e+02 </wgt>
<wgt id='16'> +5.4632484e+02 </wgt>
<wgt id='17'> +4.6462065e+02 </wgt>
<wgt id='18'> +4.2982496e+02 </wgt>
<wgt id='19'> +5.7662043e+02 </wgt>
<wgt id='20'> +4.0556198e+02 </wgt>
<wgt id='21'> +4.0708967e+02 </wgt>
<wgt id='22'> +3.7673924e+02 </wgt>
<wgt id='23'> +5.0964672e+02 </wgt>
<wgt id='24'> +3.5595473e+02 </wgt>
<wgt id='25'> +4.2265640e+02 </wgt>
<wgt id='26'> +3.5848964e+02 </wgt>
<wgt id='27'> +3.3230700e+02 </wgt>
<wgt id='28'> +4.4670257e+02 </wgt>
<wgt id='29'> +3.1435599e+02 </wgt>
<wgt id='30'> +4.6187644e+02 </wgt>
<wgt id='31'> +3.9575613e+02 </wgt>
<wgt id='32'> +3.6733352e+02 </wgt>
<wgt id='33'> +4.8630913e+02 </wgt>
<wgt id='34'> +3.4742175e+02 </wgt>
<wgt id='35'> +4.0715140e+02 </wgt>
<wgt id='36'> +3.4675220e+02 </wgt>
<wgt id='37'> +3.2196583e+02 </wgt>
<wgt id='38'> +4.2982496e+02 </wgt>
<wgt id='39'> +3.0492606e+02 </wgt>
<wgt id='40'> +3.5732410e+02 </wgt>
<wgt id='41'> +3.0535550e+02 </wgt>
<wgt id='42'> +2.8399351e+02 </wgt>
<wgt id='43'> +3.7673924e+02 </wgt>
<wgt id='44'> +2.6929079e+02 </wgt>
<wgt id='45'> +4.8159400e+02 </wgt>
<wgt id='46'> +4.8883923e+02 </wgt>
<wgt id='47'> +5.4073267e+02 </wgt>
<wgt id='48'> +4.8131802e+02 </wgt>
<wgt id='49'> +4.2558301e+02 </wgt>
<wgt id='50'> +5.6438520e+02 </wgt>
<wgt id='51'> +4.5155110e+02 </wgt>
<wgt id='52'> +4.0682740e+02 </wgt>
<wgt id='53'> +5.1654634e+02 </wgt>
<wgt id='54'> +5.1509034e+02 </wgt>
<wgt id='55'> +5.9234630e+02 </wgt>
<wgt id='56'> +4.7207054e+02 </wgt>
<wgt id='57'> +5.2171441e+02 </wgt>
<wgt id='58'> +4.1159484e+02 </wgt>
<wgt id='59'> +5.2171670e+02 </wgt>
<wgt id='60'> +4.6624624e+02 </wgt>
<wgt id='61'> +3.7997010e+02 </wgt>
<wgt id='62'> +4.1851978e+02 </wgt>
<wgt id='63'> +5.1547564e+02 </wgt>
<wgt id='64'> +4.8490813e+02 </wgt>
<wgt id='65'> +3.8181938e+02 </wgt>
<wgt id='66'> +4.9931247e+02 </wgt>
<wgt id='67'> +4.8033676e+02 </wgt>
<wgt id='68'> +6.6767873e+02 </wgt>
<wgt id='69'> +5.6597530e+02 </wgt>
<wgt id='70'> +5.9681969e+02 </wgt>
<wgt id='71'> +4.1690882e+02 </wgt>
<wgt id='72'> +4.0566912e+02 </wgt>
<wgt id='73'> +4.2180400e+02 </wgt>
<wgt id='74'> +6.1234658e+02 </wgt>
<wgt id='75'> +5.8480846e+02 </wgt>
<wgt id='76'> +4.9517800e+02 </wgt>
<wgt id='77'> +4.2479828e+02 </wgt>
<wgt id='78'> +3.9182508e+02 </wgt>
<wgt id='79'> +5.4930735e+02 </wgt>
<wgt id='80'> +3.8588221e+02 </wgt>
<wgt id='81'> +5.2862439e+02 </wgt>
<wgt id='82'> +4.7988676e+02 </wgt>
<wgt id='83'> +4.7859951e+02 </wgt>
<wgt id='84'> +4.3365652e+02 </wgt>
<wgt id='85'> +4.0328393e+02 </wgt>
<wgt id='86'> +5.3222258e+02 </wgt>
<wgt id='87'> +4.5740628e+02 </wgt>
<wgt id='88'> +4.9292372e+02 </wgt>
<wgt id='89'> +3.2993949e+02 </wgt>
<wgt id='90'> +4.0203165e+02 </wgt>
<wgt id='91'> +3.7010809e+02 </wgt>
<wgt id='92'> +4.5617284e+02 </wgt>
<wgt id='93'> +5.0065328e+02 </wgt>
<wgt id='94'> +4.2558115e+02 </wgt>
<wgt id='95'> +5.0326593e+02 </wgt>
<wgt id='96'> +4.9500844e+02 </wgt>
<wgt id='97'> +4.0891544e+02 </wgt>
<wgt id='98'> +5.7374308e+02 </wgt>
<wgt id='99'> +3.6852358e+02 </wgt>
<wgt id='100'> +3.1883947e+02 </wgt>
<wgt id='101'> +5.7654240e+02 </wgt>
<wgt id='102'> +5.6456996e+02 </wgt>
<wgt id='103'> +4.1459491e+02 </wgt>
<wgt id='104'> +5.4048696e+02 </wgt>
<wgt id='105'> +4.9051340e+02 </wgt>
<wgt id='106'> +4.9178532e+02 </wgt>
<wgt id='107'> +4.9403616e+02 </wgt>
<wgt id='108'> +4.5385216e+02 </wgt>
<wgt id='109'> +4.8383892e+02 </wgt>
<wgt id='110'> +4.0066513e+02 </wgt>
<wgt id='111'> +4.5576420e+02 </wgt>
<wgt id='112'> +5.0767629e+02 </wgt>
<wgt id='113'> +5.7412492e+02 </wgt>
<wgt id='114'> +4.8352383e+02 </wgt>
<wgt id='115'> +4.5393940e+02 </wgt>
<wgt id='116'> +5.4979922e+02 </wgt>
<wgt id='117'> +4.8686451e+02 </wgt>
<wgt id='118'> +4.7914352e+02 </wgt>
<wgt id='119'> +5.4153985e+02 </wgt>
<wgt id='120'> +4.7591517e+02 </wgt>
<wgt id='121'> +4.4727627e+02 </wgt>
<wgt id='122'> +4.5781135e+02 </wgt>
<wgt id='123'> +4.3214773e+02 </wgt>
<wgt id='124'> +5.3817851e+02 </wgt>
<wgt id='125'> +6.7394610e+02 </wgt>
<wgt id='126'> +4.5699381e+02 </wgt>
<wgt id='127'> +4.3504265e+02 </wgt>
<wgt id='128'> +4.8387238e+02 </wgt>
<wgt id='129'> +4.5647321e+02 </wgt>
<wgt id='130'> +4.8753857e+02 </wgt>
<wgt id='131'> +4.0961388e+02 </wgt>
<wgt id='132'> +5.1516272e+02 </wgt>
<wgt id='133'> +5.3789492e+02 </wgt>
<wgt id='134'> +5.3515977e+02 </wgt>
<wgt id='135'> +4.4751104e+02 </wgt>
<wgt id='136'> +5.9285970e+02 </wgt>
<wgt id='137'> +5.6355987e+02 </wgt>
<wgt id='138'> +5.2728243e+02 </wgt>
<wgt id='139'> +5.0031788e+02 </wgt>
<wgt id='140'> +4.6223305e+02 </wgt>
<wgt id='141'> +6.1669580e+02 </wgt>
<wgt id='142'> +2.4511782e+02 </wgt>
<wgt id='143'> +4.8691177e+02 </wgt>
<wgt id='144'> +4.1457698e+02 </wgt>
<wgt id='145'> +4.3111024e+02 </wgt>
</rwgt>
</event>
<event>
 8      1 +4.8159400e+02 2.12669400e+02 7.54677100e-03 1.14013100e-01
       21 -1    0    0  501  502 +0.0000000000e+00 +0.0000000000e+00 +3.0760691193e+02 3.0760691193e+02 0.0000000000e+00 0.0000e+00 1.0000e+00
       21 -1    0    0  502  503 -0.0000000000e+00 -0.0000000000e+00 -2.8276126504e+02 2.8276126504e+02 0.0000000000e+00 0.0000e+00 -1.0000e+00
       -6  2    1    2    0  503 -1.2325175291e+02 -1.0845666464e+01 -1.9387769725e+02 2.8529743547e+02 1.6881185420e+02 0.0000e+00 0.0000e+00
        6  2    1    2  501    0 +1.2325175291e+02 +1.0845666464e+01 +2.1872334414e+02 3.0507074150e+02 1.7297292556e+02 0.0000e+00 0.0000e+00
        5  1    4    4  501    0 +9.6751404923e+01 +2.3221992091e+01 +1.9048826474e+02 2.1496037838e+02 4.7000000000e+00 0.0000e+00 -1.0000e+00
       24  1    4    4    0    0 +2.6500347984e+01 -1.2376325627e+01 +2.8235079399e+01 9.0110363124e+01 8.0419002446e+01 0.0000e+00 1.0000e+00
       -5  1    3    3    0  503 -1.2653218034e+02 +7.0764712626e+00 -1.1962872661e+02 1.7433757867e+02 4.7000000000e+00 0.0000e+00 1.0000e+00
      -24  1    3    3    0    0 +3.2804274322e+00 -1.7922137727e+01 -7.4248970635e+01 1.1095985679e+02 8.0419002446e+01 0.0000e+00 -1.0000e+00
<mgrwt>
<rscale>  2 0.21182171E+03</rscale>
<asrwt>0</asrwt>
<pdfrwt beam="1">  1       21 0.47324140E-01 0.21266936E+03</pdfrwt>
<pdfrwt beam="2">  1       21 0.43501733E-01 0.21266936E+03</pdfrwt>
<totfact> 0.21443677E+04</totfact>
</mgrwt>
<rwgt>
<wgt id='1'> +6.3036296e+02 </wgt>
<wgt id='2'> +5.3766538e+02 </wgt>
<wgt id='3'> +4.9495612e+02 </wgt>
<wgt id='4'> +6.4906218e+02 </wgt>
<wgt id='5'> +4.2632124e+02 </wgt>
<wgt id='6'> +5.8796402e+02 </wgt>
<wgt id='7'> +4.9624183e+02 </wgt>
<wgt id='8'> +4.5581920e+02 </wgt>
<wgt id='9'> +6.0665685e+02 </wgt>
<wgt id='10'> +3.9296163e+02 </wgt>
<wgt id='11'> +5.4152223e+02 </wgt>
<wgt id='12'> +4.5748900e+02 </wgt>
<wgt id='13'> +4.2044828e+02 </wgt>
<wgt id='14'> +5.5868758e+02 </wgt>
<wgt id='15'> +3.6287185e+02 </wgt>
<wgt id='16'> +5.1632244e+02 </wgt>
<wgt id='17'> +4.4966521e+02 </wgt>
<wgt id='18'> +4.1696334e+02 </wgt>
<wgt id='19'> +5.2955356e+02 </wgt>
<wgt id='20'> +3.6204215e+02 </wgt>
<wgt id='21'> +4.1502150e+02 </wgt>
<wgt id='22'> +3.8399342e+02 </wgt>
<wgt id='23'> +4.9495612e+02 </wgt>
<wgt id='24'> +3.3371237e+02 </wgt>
<wgt id='25'> +4.4355411e+02 </wgt>
<wgt id='26'> +3.8261138e+02 </wgt>
<wgt id='27'> +3.5419608e+02 </wgt>
<wgt id='28'> +4.5581920e+02 </wgt>
<wgt id='29'> +3.0815941e+02 </wgt>
<wgt id='30'> +4.3563445e+02 </wgt>
<wgt id='31'> +3.8240420e+02 </wgt>
<wgt id='32'> +3.5601742e+02 </wgt>
<wgt id='33'> +4.4610908e+02 </wgt>
<wgt id='34'> +3.1127502e+02 </wgt>
<wgt id='35'> +4.0633317e+02 </wgt>
<wgt id='36'> +3.5294250e+02 </wgt>
<wgt id='37'> +3.2786659e+02 </wgt>
<wgt id='38'> +4.1696334e+02 </wgt>
<wgt id='39'> +2.8691777e+02 </wgt>
<wgt id='40'> +3.7423794e+02 </wgt>
<wgt id='41'> +3.2538029e+02 </wgt>
<wgt id='42'> +3.0242461e+02 </wgt>
<wgt id='43'> +3.8399342e+02 </wgt>
<wgt id='44'> +2.6494796e+02 </wgt>
<wgt id='45'> +4.8159400e+02 </wgt>
<wgt id='46'> +4.8779784e+02 </wgt>
<wgt id='47'> +5.0303293e+02 </wgt>
<wgt id='48'> +4.8716666e+02 </wgt>
<wgt id='49'> +4.8041434e+02 </wgt>
<wgt id='50'> +5.8194487e+02 </wgt>
<wgt id='51'> +4.7233669e+02 </wgt>
<wgt id='52'> +4.8038982e+02 </wgt>
<wgt id='53'> +4.8273304e+02 </wgt>
<wgt id='54'> +4.8431633e+02 </wgt>
<wgt id='55'> +4.2706152e+02 </wgt>
<wgt id='56'> +4.4059901e+02 </wgt>
<wgt id='57'> +4.6765999e+02 </wgt>
<wgt id='58'> +4.7920717e+02 </wgt>
<wgt id='59'> +4.8037022e+02 </wgt>
<wgt id='60'> +4.6719220e+02 </wgt>
<wgt id='61'> +4.5759115e+02 </wgt>
<wgt id='62'> +4.7663391e+02 </wgt>
<wgt id='63'> +4.8196132e+02 </wgt>
<wgt id='64'> +4.7123814e+02 </wgt>
<wgt id='65'> +5.7034177e+02 </wgt>
<wgt id='66'> +4.7114783e+02 </wgt>
<wgt id='67'> +4.8595509e+02 </wgt>
<wgt id='68'> +5.2386214e+02 </wgt>
<wgt id='69'> +4.7737166e+02 </wgt>
<wgt id='70'> +4.7197719e+02 </wgt>
<wgt id='71'> +4.9061525e+02 </wgt>
<wgt id='72'> +4.5603039e+02 </wgt>
<wgt id='73'> +4.7226682e+02 </wgt>
<wgt id='74'> +5.0298879e+02 </wgt>
<wgt id='75'> +4.9434373e+02 </wgt>
<wgt id='76'> +4.6507503e+02 </wgt>
<wgt id='77'> +4.6734048e+02 </wgt>
<wgt id='78'> +4.7533299e+02 </wgt>
<wgt id='79'> +4.6504775e+02 </wgt>
<wgt id='80'> +4.7507886e+02 </wgt>
<wgt id='81'> +4.6981797e+02 </wgt>
<wgt id='82'> +4.9171398e+02 </wgt>
<wgt id='83'> +4.9552736e+02 </wgt>
<wgt id='84'> +5.3416744e+02 </wgt>
<wgt id='85'> +5.0819960e+02 </wgt>
<wgt id='86'> +4.8240809e+02 </wgt>
<wgt id='87'> +4.8392356e+02 </wgt>
<wgt id='88'> +4.9238721e+02 </wgt>
<wgt id='89'> +4.9670340e+02 </wgt>
<wgt id='90'> +4.8933373e+02 </wgt>
<wgt id='91'> +5.1182977e+02 </wgt>
<wgt id='92'> +4.3023716e+02 </wgt>
<wgt id='93'> +4.7670881e+02 </wgt>
<wgt id='94'> +4.7450879e+02 </wgt>
<wgt id='95'> +4.5794044e+02 </wgt>
<wgt id='96'> +5.3047777e+02 </wgt>
<wgt id='97'> +4.8568747e+02 </wgt>
<wgt id='98'> +4.5989727e+02 </wgt>
<wgt id='99'> +4.6498899e+02 </wgt>
<wgt id='100'> +4.6759134e+02 </wgt>
<wgt id='101'> +5.1902202e+02 </wgt>
<wgt id='102'> +4.7782975e+02 </wgt>
<wgt id='103'> +5.2980744e+02 </wgt>
<wgt id='104'> +4.8420871e+02 </wgt>
<wgt id='105'> +4.9633823e+02 </wgt>
<wgt id='106'> +4.3146310e+02 </wgt>
<wgt id='107'> +4.6504777e+02 </wgt>
<wgt id='108'> +4.2022990e+02 </wgt>
<wgt id='109'> +4.4516885e+02 </wgt>
<wgt id='110'> +4.8042482e+02 </wgt>
<wgt id='111'> +4.6476603e+02 </wgt>
<wgt id='112'> +4.5310630e+02 </wgt>
<wgt id='113'> +4.3588630e+02 </wgt>
<wgt id='114'> +4.6967743e+02 </wgt>
<wgt id='115'> +4.7192176e+02 </wgt>
<wgt id='116'> +4.9054565e+02 </wgt>
<wgt id='117'> +4.8454324e+02 </wgt>
<wgt id='118'> +5.0249715e+02 </wgt>
<wgt id='119'> +4.5884542e+02 </wgt>
<wgt id='120'> +4.7299224e+02 </wgt>
<wgt id='121'> +4.6411982e+02 </wgt>
<wgt id='122'> +4.7378236e+02 </wgt>
<wgt id='123'> +4.9059590e+02 </wgt>
<wgt id='124'> +5.2567282e+02 </wgt>
<wgt id='125'> +5.2560828e+02 </wgt>
<wgt id='126'> +5.0481845e+02 </wgt>
<wgt id='127'> +4.9971787e+02 </wgt>
<wgt id='128'> +4.4088030e+02 </wgt>
<wgt id='129'> +5.5039924e+02 </wgt>
<wgt id='130'> +4.8787904e+02 </wgt>
<wgt id='131'> +5.1657706e+02 </wgt>
<wgt id='132'> +4.8215372e+02 </wgt>
<wgt id='133'> +4.8484748e+02 </wgt>
<wgt id='134'> +4.5321674e+02 </wgt>
<wgt id='135'> +4.9443744e+02 </wgt>
<wgt id='136'> +4.6540565e+02 </wgt>
<wgt id='137'> +4.5553823e+02 </wgt>
<wgt id='138'> +4.4492797e+02 </wgt>
<wgt id='139'> +4.9465207e+02 </wgt>
<wgt id='140'> +5.0904204e+02 </wgt>
<wgt id='141'> +4.8286860e+02 </wgt>
<wgt id='142'> +4.7713576e+02 </wgt>
<wgt id='143'> +4.8047138e+02 </wgt>
<wgt id='144'> +4.7639810e+02 </wgt>
<wgt id='145'> +4.8304098e+02 </wgt>
</rwgt>
</event>
<event>
 8      1 +4.8159400e+02 1.84770400e+02 7.54677100e-03 1.16330700e-01
       21 -1    0    0  503  502 +0.0000000000e+00 +0.0000000000e+00 +1.3251817650e+03 1.3251817650e+03 0.0000000000e+00 0.0000e+00 -1.0000e+00
       21 -1    0    0  501  503 -0.0000000000e+00 -0.0000000000e+00 -1.0221748367e+02 1.0221748367e+02 0.0000000000e+00 0.0000e+00 -1.0000e+00
        6  2    1    2  501    0 +5.6374649665e+01 +3.3370530648e+01 -5.7861854357e+00 1.8486101561e+02 1.7276695781e+02 0.0000e+00 0.0000e+00
       -6  2    1    2    0  502 -5.6374649665e+01 -3.3370530648e+01 +1.2287504668e+03 1.2425382331e+03 1.7257420895e+02 0.0000e+00 0.0000e+00
        5  1    3    3  501    0 +2.3625359787e+00 +1.9841664299e+00 -6.6212557862e+01 6.6450818740e+01 4.7000000000e+00 0.0000e+00 -1.0000e+00
       24  1    3    3    0    0 +5.4012113686e+01 +3.1386364218e+01 +6.0426372426e+01 1.1841019687e+02 8.0419002446e+01 0.0000e+00 1.0000e+00
       -5  1    4    4    0  502 -1.7438689495e+01 -2.3571996574e+01 +3.7185032845e+01 4.7587430919e+01 4.7000000000e+00 0.0000e+00 1.0000e+00
      -24  1    4    4    0    0 -3.8935960170e+01 -9.7985340735e+00 +1.1915654339e+03 1.1949508021e+03 8.0419002446e+01 0.0000e+00 0.0000e+00
<mgrwt>
<rscale>  2 0.18472537E+03</rscale>
<asrwt>0</asrwt>
<pdfrwt beam="1">  1       21 0.20387410E+00 0.18477044E+03</pdfrwt>
<pdfrwt beam="2">  1       21 0.15725768E-01 0.18477044E+03</pdfrwt>
<totfact> 0.45992073E+03</totfact>
</mgrwt>
<rwgt>
<wgt id='1'> +6.6571649e+02 </wgt>
<wgt id='2'> +7.1875568e+02 </wgt>
<wgt id='3'> +6.0307043e+02 </wgt>
<wgt id='4'> +8.4815785e+02 </wgt>
<wgt id='5'> +3.5669256e+02 </wgt>
<wgt id='6'> +5.9212493e+02 </wgt>
<wgt id='7'> +6.4014801e+02 </wgt>
<wgt id='8'> +5.3427597e+02 </wgt>
<wgt id='9'> +7.5499956e+02 </wgt>
<wgt id='10'> +3.1522922e+02 </wgt>
<wgt id='11'> +5.2068649e+02 </wgt>
<wgt id='12'> +5.6350274e+02 </wgt>
<wgt id='13'> +4.7038836e+02 </wgt>
<wgt id='14'> +6.6887399e+02 </wgt>
<wgt id='15'> +2.8011921e+02 </wgt>
<wgt id='16'> +5.4144835e+02 </wgt>
<wgt id='17'> +5.8065694e+02 </wgt>
<wgt id='18'> +4.9587937e+02 </wgt>
<wgt id='19'> +6.7748241e+02 </wgt>
<wgt id='20'> +3.0417354e+02 </wgt>
<wgt id='21'> +5.1715262e+02 </wgt>
<wgt id='22'> +4.3931259e+02 </wgt>
<wgt id='23'> +6.0307043e+02 </wgt>
<wgt id='24'> +2.6881522e+02 </wgt>
<wgt id='25'> +4.2349085e+02 </wgt>
<wgt id='26'> +4.5523366e+02 </wgt>
<wgt id='27'> +3.8678050e+02 </wgt>
<wgt id='28'> +5.3427597e+02 </wgt>
<wgt id='29'> +2.3887477e+02 </wgt>
<wgt id='30'> +4.5529210e+02 </wgt>
<wgt id='31'> +4.8550339e+02 </wgt>
<wgt id='32'> +4.1893279e+02 </wgt>
<wgt id='33'> +5.5706520e+02 </wgt>
<wgt id='34'> +2.6245518e+02 </wgt>
<wgt id='35'> +4.0496189e+02 </wgt>
<wgt id='36'> +4.3240566e+02 </wgt>
<wgt id='37'> +3.7114359e+02 </wgt>
<wgt id='38'> +4.9587937e+02 </wgt>
<wgt id='39'> +2.3194636e+02 </wgt>
<wgt id='40'> +3.5610421e+02 </wgt>
<wgt id='41'> +3.8063350e+02 </wgt>
<wgt id='42'> +3.2676300e+02 </wgt>
<wgt id='43'> +4.3931259e+02 </wgt>
<wgt id='44'> +2.0611234e+02 </wgt>
<wgt id='45'> +4.8159400e+02 </wgt>
<wgt id='46'> +4.9584174e+02 </wgt>
<wgt id='47'> +5.0662359e+02 </wgt>
<wgt id='48'> +4.8213211e+02 </wgt>
<wgt id='49'> +4.4168587e+02 </wgt>
<wgt id='50'> +5.8284222e+02 </wgt>
<wgt id='51'> +4.5135403e+02 </wgt>
<wgt id='52'> +4.4606532e+02 </wgt>
<wgt id='53'> +4.8729079e+02 </wgt>
<wgt id='54'> +5.1274708e+02 </wgt>
<wgt id='55'> +5.3317492e+02 </wgt>
<wgt id='56'> +4.5584875e+02 </wgt>
<wgt id='57'> +5.1000482e+02 </wgt>
<wgt id='58'> +4.3191435e+02 </wgt>
<wgt id='59'> +5.2174441e+02 </wgt>
<wgt id='60'> +4.7456779e+02 </wgt>
<wgt id='61'> +4.1505351e+02 </wgt>
<wgt id='62'> +4.4119932e+02 </wgt>
<wgt id='63'> +5.0856025e+02 </wgt>
<wgt id='64'> +4.8031294e+02 </wgt>
<wgt id='65'> +4.5132209e+02 </wgt>
<wgt id='66'> +4.8791157e+02 </wgt>
<wgt id='67'> +4.8558796e+02 </wgt>
<wgt id='68'> +5.9555312e+02 </wgt>
<wgt id='69'> +5.2785663e+02 </wgt>
<wgt id='70'> +5.2205254e+02 </wgt>
<wgt id='71'> +4.4711733e+02 </wgt>
<wgt id='72'> +4.3229721e+02 </wgt>
<wgt id='73'> +4.3219945e+02 </wgt>
<wgt id='74'> +5.6007224e+02 </wgt>
<wgt id='75'> +5.3104515e+02 </wgt>
<wgt id='76'> +4.9314126e+02 </wgt>
<wgt id='77'> +4.5080688e+02 </wgt>
<wgt id='78'> +4.1270451e+02 </wgt>
<wgt id='79'> +5.1501685e+02 </wgt>
<wgt id='80'> +4.2349844e+02 </wgt>
<wgt id='81'> +4.9917457e+02 </wgt>
<wgt id='82'> +4.7541123e+02 </wgt>
<wgt id='83'> +4.7957704e+02 </wgt>
<wgt id='84'> +4.7754268e+02 </wgt>
<wgt id='85'> +4.3655577e+02 </wgt>
<wgt id='86'> +5.0932828e+02 </wgt>
<wgt id='87'> +4.7407898e+02 </wgt>
<wgt id='88'> +4.7477497e+02 </wgt>
<wgt id='89'> +4.0558389e+02 </wgt>
<wgt id='90'> +4.4535320e+02 </wgt>
<wgt id='91'> +4.2011650e+02 </wgt>
<wgt id='92'> +4.4327589e+02 </wgt>
<wgt id='93'> +4.8693881e+02 </wgt>
<wgt id='94'> +4.3964467e+02 </wgt>
<wgt id='95'> +5.0201642e+02 </wgt>
<wgt id='96'> +5.1335933e+02 </wgt>
<wgt id='97'> +4.3520348e+02 </wgt>
<wgt id='98'> +5.1982276e+02 </wgt>
<wgt id='99'> +3.9896174e+02 </wgt>
<wgt id='100'> +3.6136923e+02 </wgt>
<wgt id='101'> +5.6757285e+02 </wgt>
<wgt id='102'> +5.4354556e+02 </wgt>
<wgt id='103'> +4.6258993e+02 </wgt>
<wgt id='104'> +5.2036172e+02 </wgt>
<wgt id='105'> +4.9326075e+02 </wgt>
<wgt id='106'> +4.6150369e+02 </wgt>
<wgt id='107'> +4.6417148e+02 </wgt>
<wgt id='108'> +4.4288587e+02 </wgt>
<wgt id='109'> +4.7074284e+02 </wgt>
<wgt id='110'> +4.3843769e+02 </wgt>
<wgt id='111'> +4.6517131e+02 </wgt>
<wgt id='112'> +4.9899360e+02 </wgt>
<wgt id='113'> +5.0321797e+02 </wgt>
<wgt id='114'> +4.9854687e+02 </wgt>
<wgt id='115'> +4.4380173e+02 </wgt>
<wgt id='116'> +5.3305152e+02 </wgt>
<wgt id='117'> +4.7396139e+02 </wgt>
<wgt id='118'> +4.9824613e+02 </wgt>
<wgt id='119'> +5.2616931e+02 </wgt>
<wgt id='120'> +4.8304109e+02 </wgt>
<wgt id='121'> +4.6801735e+02 </wgt>
<wgt id='122'> +4.6907018e+02 </wgt>
<wgt id='123'> +4.6031834e+02 </wgt>
<wgt id='124'> +5.4980613e+02 </wgt>
<wgt id='125'> +6.1575540e+02 </wgt>
<wgt id='126'> +4.7360070e+02 </wgt>
<wgt id='127'> +4.6112329e+02 </wgt>
<wgt id='128'> +4.6328478e+02 </wgt>
<wgt id='129'> +4.9697579e+02 </wgt>
<wgt id='130'> +4.7827908e+02 </wgt>
<wgt id='131'> +4.4445300e+02 </wgt>
<wgt id='132'> +5.2420285e+02 </wgt>
<wgt id='133'> +5.2742941e+02 </wgt>
<wgt id='134'> +5.0319536e+02 </wgt>
<wgt id='135'> +4.6070266e+02 </wgt>
<wgt id='136'> +5.6534195e+02 </wgt>
<wgt id='137'> +5.0750402e+02 </wgt>
<wgt id='138'> +4.9427157e+02 </wgt>
<wgt id='139'> +4.9745717e+02 </wgt>
<wgt id='140'> +4.7231748e+02 </wgt>
<wgt id='141'> +5.5305541e+02 </wgt>
<wgt id='142'> +3.3103785e+02 </wgt>
<wgt id='143'> +4.9128775e+02 </wgt>
<wgt id='144'> +4.3373432e+02 </wgt>
<wgt id='145'> +4.4280294e+02 </wgt>
</rwgt>
</event>
<event>
 8      1 +4.8159400e+02 3.04280400e+02 7.54677100e-03 1.08326500e-01
       21 -1    0    0  503  502 +0.0000000000e+00 +0.0000000000e+00 +8.8556259139e+01 8.8556259139e+01 0.0000000000e+00 0.0000e+00 -1.0000e+00
       21 -1    0    0  501  503 -0.0000000000e+00 -0.0000000000e+00 -1.3486980439e+03 1.3486980439e+03 0.0000000000e+00 0.0000e+00 -1.0000e+00
        6  2    1    2  501    0 -1.0583831894e+02 -2.2521805298e+02 -9.7399716321e+02 1.0204200398e+03 1.7510471902e+02 0.0000e+00 0.0000e+00
       -6  2    1    2    0  502 +1.0583831894e+02 +2.2521805298e+02 -2.8614462159e+02 4.1683426324e+02 1.7305241229e+02 0.0000e+00 0.0000e+00
        5  1    3    3  501    0 -4.8629545005e+01 -4.7661988941e+01 -8.7642269518e+01 1.1108445095e+02 4.7000000000e+00 0.0000e+00 -1.0000e+00
       24  1    3    3    0    0 -5.7208773931e+01 -1.7755606404e+02 -8.8635489369e+02 9.0933558889e+02 8.0419002446e+01 0.0000e+00 -1.0000e+00
       -5  1    4    4    0  502 +5.2233916473e+01 -2.4966789870e+00 -2.8845120280e+01 5.9906146597e+01 4.7000000000e+00 0.0000e+00 1.0000e+00
      -24  1    4    4    0    0 +5.3604402463e+01 +2.2771473197e+02 -2.5729950131e+02 3.5692811664e+02 8.0419002446e+01 0.0000e+00 0.0000e+00
<mgrwt>
<rscale>  2 0.30398591E+03</rscale>
<asrwt>0</asrwt>
<pdfrwt beam="1">  1       21 0.13624042E-01 0.30428044E+03</pdfrwt>
<pdfrwt beam="2">  1       21 0.20749198E+00 0.30428044E+03</pdfrwt>
<totfact> 0.51694344E+03</totfact>
</mgrwt>
<rwgt>
<wgt id='1'> +6.5353557e+02 </wgt>
<wgt id='2'> +5.0357388e+02 </wgt>
<wgt id='3'> +4.9465939e+02 </wgt>
<wgt id='4'> +6.7250842e+02 </wgt>
<wgt id='5'> +4.5621867e+02 </wgt>
<wgt id='6'> +5.7699323e+02 </wgt>
<wgt id='7'> +4.4496316e+02 </wgt>
<wgt id='8'> +4.3722256e+02 </wgt>
<wgt id='9'> +5.9449317e+02 </wgt>
<wgt id='10'> +4.0382136e+02 </wgt>
<wgt id='11'> +5.1023553e+02 </wgt>
<wgt id='12'> +3.9524098e+02 </wgt>
<wgt id='13'> +3.8848887e+02 </wgt>
<wgt id='14'> +5.2546425e+02 </wgt>
<wgt id='15'> +3.5933401e+02 </wgt>
<wgt id='16'> +5.4548094e+02 </wgt>
<wgt id='17'> +4.2703332e+02 </wgt>
<wgt id='18'> +4.1981664e+02 </wgt>
<wgt id='19'> +5.5957347e+02 </wgt>
<wgt id='20'> +3.8859568e+02 </wgt>
<wgt id='21'> +3.7733112e+02 </wgt>
<wgt id='22'> +3.7107009e+02 </wgt>
<wgt id='23'> +4.9465939e+02 </wgt>
<wgt id='24'> +3.4396495e+02 </wgt>
<wgt id='25'> +4.2587393e+02 </wgt>
<wgt id='26'> +3.3516644e+02 </wgt>
<wgt id='27'> +3.2970988e+02 </wgt>
<wgt id='28'> +4.3722256e+02 </wgt>
<wgt id='29'> +3.0607174e+02 </wgt>
<wgt id='30'> +4.6350310e+02 </wgt>
<wgt id='31'> +3.6670376e+02 </wgt>
<wgt id='32'> +3.6075651e+02 </wgt>
<wgt id='33'> +4.7490911e+02 </wgt>
<wgt id='34'> +3.3496343e+02 </wgt>
<wgt id='35'> +4.0921743e+02 </wgt>
<wgt id='36'> +3.2402329e+02 </wgt>
<wgt id='37'> +3.1886766e+02 </wgt>
<wgt id='38'> +4.1981664e+02 </wgt>
<wgt id='39'> +2.9649244e+02 </wgt>
<wgt id='40'> +3.6187128e+02 </wgt>
<wgt id='41'> +2.8781547e+02 </wgt>
<wgt id='42'> +2.8332604e+02 </wgt>
<wgt id='43'> +3.7107009e+02 </wgt>
<wgt id='44'> +2.6382908e+02 </wgt>
<wgt id='45'> +4.8159400e+02 </wgt>
<wgt id='46'> +4.9480827e+02 </wgt>
<wgt id='47'> +5.1000832e+02 </wgt>
<wgt id='48'> +4.8213620e+02 </wgt>
<wgt id='49'> +4.4071318e+02 </wgt>
<wgt id='50'> +5.7707497e+02 </wgt>
<wgt id='51'> +4.5242631e+02 </wgt>
<wgt id='52'> +4.4191130e+02 </wgt>
<wgt id='53'> +4.9062966e+02 </wgt>
<wgt id='54'> +5.1204760e+02 </wgt>
<wgt id='55'> +5.3952957e+02 </wgt>
<wgt id='56'> +4.5911384e+02 </wgt>
<wgt id='57'> +5.1037365e+02 </wgt>
<wgt id='58'> +4.3021299e+02 </wgt>
<wgt id='59'> +5.2043061e+02 </wgt>
<wgt id='60'> +4.7344800e+02 </wgt>
<wgt id='61'> +4.1230252e+02 </wgt>
<wgt id='62'> +4.3965461e+02 </wgt>
<wgt id='63'> +5.0878012e+02 </wgt>
<wgt id='64'> +4.8025025e+02 </wgt>
<wgt id='65'> +4.4274377e+02 </wgt>
<wgt id='66'> +4.9012044e+02 </wgt>
<wgt id='67'> +4.8525252e+02 </wgt>
<wgt id='68'> +6.0029359e+02 </wgt>
<wgt id='69'> +5.3261145e+02 </wgt>
<wgt id='70'> +5.2995524e+02 </wgt>
<wgt id='71'> +4.4468647e+02 </wgt>
<wgt id='72'> +4.2994857e+02 </wgt>
<wgt id='73'> +4.3171431e+02 </wgt>
<wgt id='74'> +5.6361076e+02 </wgt>
<wgt id='75'> +5.3553256e+02 </wgt>
<wgt id='76'> +4.9329700e+02 </wgt>
<wgt id='77'> +4.4868362e+02 </wgt>
<wgt id='78'> +4.1201957e+02 </wgt>
<wgt id='79'> +5.1844920e+02 </wgt>
<wgt id='80'> +4.2088928e+02 </wgt>
<wgt id='81'> +5.0245048e+02 </wgt>
<wgt id='82'> +4.7672564e+02 </wgt>
<wgt id='83'> +4.8000055e+02 </wgt>
<wgt id='84'> +4.7237130e+02 </wgt>
<wgt id='85'> +4.3304249e+02 </wgt>
<wgt id='86'> +5.1151131e+02 </wgt>
<wgt id='87'> +4.7205763e+02 </wgt>
<wgt id='88'> +4.7763370e+02 </wgt>
<wgt id='89'> +3.9806432e+02 </wgt>
<wgt id='90'> +4.4088189e+02 </wgt>
<wgt id='91'> +4.1561105e+02 </wgt>
<wgt id='92'> +4.4611240e+02 </wgt>
<wgt id='93'> +4.8834224e+02 </wgt>
<wgt id='94'> +4.3895873e+02 </wgt>
<wgt id='95'> +5.0148774e+02 </wgt>
<wgt id='96'> +5.1030039e+02 </wgt>
<wgt id='97'> +4.3323487e+02 </wgt>
<wgt id='98'> +5.2585769e+02 </wgt>
<wgt id='99'> +3.9756413e+02 </wgt>
<wgt id='100'> +3.5963030e+02 </wgt>
<wgt id='101'> +5.6615838e+02 </wgt>
<wgt id='102'> +5.4520191e+02 </wgt>
<wgt id='103'> +4.5608736e+02 </wgt>
<wgt id='104'> +5.2288173e+02 </wgt>
<wgt id='105'> +4.9182489e+02 </wgt>
<wgt id='106'> +4.6588740e+02 </wgt>
<wgt id='107'> +4.6783750e+02 </wgt>
<wgt id='108'> +4.4678924e+02 </wgt>
<wgt id='109'> +4.7283953e+02 </wgt>
<wgt id='110'> +4.3457274e+02 </wgt>
<wgt id='111'> +4.6468134e+02 </wgt>
<wgt id='112'> +5.0029654e+02 </wgt>
<wgt id='113'> +5.1127591e+02 </wgt>
<wgt id='114'> +4.9621676e+02 </wgt>
<wgt id='115'> +4.4652762e+02 </wgt>
<wgt id='116'> +5.3434249e+02 </wgt>
<wgt id='117'> +4.7542422e+02 </wgt>
<wgt id='118'> +4.9529999e+02 </wgt>
<wgt id='119'> +5.2740329e+02 </wgt>
<wgt id='120'> +4.8193104e+02 </wgt>
<wgt id='121'> +4.6583603e+02 </wgt>
<wgt id='122'> +4.6787883e+02 </wgt>
<wgt id='123'> +4.5770875e+02 </wgt>
<wgt id='124'> +5.4584440e+02 </wgt>
<wgt id='125'> +6.1808425e+02 </wgt>
<wgt id='126'> +4.7172213e+02 </wgt>
<wgt id='127'> +4.5805980e+02 </wgt>
<wgt id='128'> +4.6794494e+02 </wgt>
<wgt id='129'> +4.9018058e+02 </wgt>
<wgt id='130'> +4.8281600e+02 </wgt>
<wgt id='131'> +4.4018455e+02 </wgt>
<wgt id='132'> +5.2151942e+02 </wgt>
<wgt id='133'> +5.2737214e+02 </wgt>
<wgt id='134'> +5.0703083e+02 </wgt>
<wgt id='135'> +4.5908926e+02 </wgt>
<wgt id='136'> +5.6637600e+02 </wgt>
<wgt id='137'> +5.1455906e+02 </wgt>
<wgt id='138'> +5.0010261e+02 </wgt>
<wgt id='139'> +4.9677387e+02 </wgt>
<wgt id='140'> +4.7044334e+02 </wgt>
<wgt id='141'> +5.5891518e+02 </wgt>
<wgt id='142'> +3.2572341e+02 </wgt>
<wgt id='143'> +4.9045442e+02 </wgt>
<wgt id='144'> +4.3235907e+02 </wgt>
<wgt id='145'> +4.4267546e+02 </wgt>
</rwgt>
</event>
<event>
 8      1 +4.8159400e+02 2.48376000e+02 7.54677100e-03 1.11445600e-01
       21 -1    0    0  501  502 +0.0000000000e+00 +0.0000000000e+00 +8.0044878247e+02 8.0044878247e+02 0.0000000000e+00 0.0000e+00 -1.0000e+00
       21 -1    0    0  502  503 -0.0000000000e+00 -0.0000000000e+00 -2.9134905654e+02 2.9134905654e+02 0.0000000000e+00 0.0000e+00 -1.0000e+00
       -6  2    1    2    0  503 -9.2028365544e+01 +1.5243194031e+02 -2.1396854869e+02 3.2725983482e+02 1.7208062983e+02 0.0000e+00 0.0000e+00
        6  2    1    2  501    0 +9.2028365544e+01 -1.5243194031e+02 +7.2306827462e+02 7.6453800420e+02 1.7316441208e+02 0.0000e+00 0.0000e+00
        5  1    4    4  501    0 +9.6444459746e+01 -5.6153626986e+01 +2.2922988032e+02 2.5499645423e+02 4.7000000000e+00 0.0000e+00 -1.0000e+00
       24  1    4    4    0    0 -4.4160942020e+00 -9.6278313326e+01 +4.9383839430e+02 5.0954154997e+02 8.0419002446e+01 0.0000e+00 0.0000e+00
       -5  1    3    3    0  503 -2.2183723068e+01 -1.6289423858e+01 -8.5513209234e+01 8.9955888369e+01 4.7000000000e+00 0.0000e+00 1.0000e+00
      -24  1    3    3    0    0 -6.9844642476e+01 +1.6872136417e+02 -1.2845533946e+02 2.3730394645e+02 8.0419002446e+01 0.0000e+00 0.0000e+00
<mgrwt>
<rscale>  2 0.24818718E+03</rscale>
<asrwt>0</asrwt>
<pdfrwt beam="1">  1       21 0.12314597E+00 0.24837599E+03</pdfrwt>
<pdfrwt beam="2">  1       21 0.44822932E-01 0.24837599E+03</pdfrwt>
<totfact> 0.22598970E+03</totfact>
</mgrwt>
<rwgt>
<wgt id='1'> +6.5597690e+02 </wgt>
<wgt id='2'> +5.1211888e+02 </wgt>
<wgt id='3'> +4.9557994e+02 </wgt>
<wgt id='4'> +6.7645970e+02 </wgt>
<wgt id='5'> +3.6498025e+02 </wgt>
<wgt id='6'> +5.8297991e+02 </wgt>
<wgt id='7'> +4.5292362e+02 </wgt>
<wgt id='8'> +4.3859754e+02 </wgt>
<wgt id='9'> +6.0196469e+02 </wgt>
<wgt id='10'> +3.2480518e+02 </wgt>
<wgt id='11'> +5.1620817e+02 </wgt>
<wgt id='12'> +4.0272255e+02 </wgt>
<wgt id='13'> +3.9020578e+02 </wgt>
<wgt id='14'> +5.3275004e+02 </wgt>
<wgt id='15'> +2.9054180e+02 </wgt>
<wgt id='16'> +5.4189610e+02 </wgt>
<wgt id='17'> +4.3222686e+02 </wgt>
<wgt id='18'> +4.1887098e+02 </wgt>
<wgt id='19'> +5.5690951e+02 </wgt>
<wgt id='20'> +3.1274542e+02 </wgt>
<wgt id='21'> +3.8226623e+02 </wgt>
<wgt id='22'> +3.7070868e+02 </wgt>
<wgt id='23'> +4.9557994e+02 </wgt>
<wgt id='24'> +2.7832009e+02 </wgt>
<wgt id='25'> +4.2643452e+02 </wgt>
<wgt id='26'> +3.3989667e+02 </wgt>
<wgt id='27'> +3.2980729e+02 </wgt>
<wgt id='28'> +4.3859754e+02 </wgt>
<wgt id='29'> +2.4896037e+02 </wgt>
<wgt id='30'> +4.5863076e+02 </wgt>
<wgt id='31'> +3.6963369e+02 </wgt>
<wgt id='32'> +3.5868411e+02 </wgt>
<wgt id='33'> +4.7070757e+02 </wgt>
<wgt id='34'> +2.7097138e+02 </wgt>
<wgt id='35'> +4.0759441e+02 </wgt>
<wgt id='36'> +3.2690814e+02 </wgt>
<wgt id='37'> +3.1744216e+02 </wgt>
<wgt id='38'> +4.1887098e+02 </wgt>
<wgt id='39'> +2.4114431e+02 </wgt>
<wgt id='40'> +3.6091049e+02 </wgt>
<wgt id='41'> +2.9067435e+02 </wgt>
<wgt id='42'> +2.8241783e+02 </wgt>
<wgt id='43'> +3.7070868e+02 </wgt>
<wgt id='44'> +2.1570623e+02 </wgt>
<wgt id='45'> +4.8159400e+02 </wgt>
<wgt id='46'> +5.0403917e+02 </wgt>
<wgt id='47'> +5.0496576e+02 </wgt>
<wgt id='48'> +4.9140479e+02 </wgt>
<wgt id='49'> +4.6621033e+02 </wgt>
<wgt id='50'> +6.1409468e+02 </wgt>
<wgt id='51'> +4.6529617e+02 </wgt>
<wgt id='52'> +4.7695867e+02 </wgt>
<wgt id='53'> +4.6993931e+02 </wgt>
<wgt id='54'> +4.9551335e+02 </wgt>
<wgt id='55'> +4.6445997e+02 </wgt>
<wgt id='56'> +4.2945358e+02 </wgt>
<wgt id='57'> +4.8803955e+02 </wgt>
<wgt id='58'> +4.5281162e+02 </wgt>
<wgt id='59'> +5.1526873e+02 </wgt>
<wgt id='60'> +4.8749484e+02 </wgt>
<wgt id='61'> +4.0391965e+02 </wgt>
<wgt id='62'> +4.6828717e+02 </wgt>
<wgt id='63'> +4.8863569e+02 </wgt>
<wgt id='64'> +4.6518728e+02 </wgt>
<wgt id='65'> +5.2495967e+02 </wgt>
<wgt id='66'> +4.7762859e+02 </wgt>
<wgt id='67'> +4.8412701e+02 </wgt>
<wgt id='68'> +5.5643340e+02 </wgt>
<wgt id='69'> +5.0392190e+02 </wgt>
<wgt id='70'> +4.7947450e+02 </wgt>
<wgt id='71'> +4.7851842e+02 </wgt>
<wgt id='72'> +4.3752128e+02 </wgt>
<wgt id='73'> +4.5252541e+02 </wgt>
<wgt id='74'> +5.3101130e+02 </wgt>
<wgt id='75'> +5.0216096e+02 </wgt>
<wgt id='76'> +4.7549771e+02 </wgt>
<wgt id='77'> +4.7399789e+02 </wgt>
<wgt id='78'> +4.3977376e+02 </wgt>
<wgt id='79'> +4.8816583e+02 </wgt>
<wgt id='80'> +4.5522274e+02 </wgt>
<wgt id='81'> +4.7166141e+02 </wgt>
<wgt id='82'> +4.6599479e+02 </wgt>
<wgt id='83'> +4.9243411e+02 </wgt>
<wgt id='84'> +5.1874214e+02 </wgt>
<wgt id='85'> +4.8124652e+02 </wgt>
<wgt id='86'> +4.9547549e+02 </wgt>
<wgt id='87'> +4.8700583e+02 </wgt>
<wgt id='88'> +4.8573187e+02 </wgt>
<wgt id='89'> +4.7761831e+02 </wgt>
<wgt id='90'> +4.8625456e+02 </wgt>
<wgt id='91'> +4.7715210e+02 </wgt>
<wgt id='92'> +4.1796198e+02 </wgt>
<wgt id='93'> +4.8616619e+02 </wgt>
<wgt id='94'> +4.5351958e+02 </wgt>
<wgt id='95'> +4.7603126e+02 </wgt>
<wgt id='96'> +5.3145278e+02 </wgt>
<wgt id='97'> +4.6216940e+02 </wgt>
<wgt id='98'> +4.8115578e+02 </wgt>
<wgt id='99'> +4.3923658e+02 </wgt>
<wgt id='100'> +4.1312044e+02 </wgt>
<wgt id='101'> +5.6424666e+02 </wgt>
<wgt id='102'> +5.2505360e+02 </wgt>
<wgt id='103'> +5.1833571e+02 </wgt>
<wgt id='104'> +4.9982087e+02 </wgt>
<wgt id='105'> +4.8946348e+02 </wgt>
<wgt id='106'> +4.2393758e+02 </wgt>
<wgt id='107'> +4.4086695e+02 </wgt>
<wgt id='108'> +4.1018104e+02 </wgt>
<wgt id='109'> +4.4585678e+02 </wgt>
<wgt id='110'> +4.6560008e+02 </wgt>
<wgt id='111'> +4.6191716e+02 </wgt>
<wgt id='112'> +4.5544609e+02 </wgt>
<wgt id='113'> +4.4566137e+02 </wgt>
<wgt id='114'> +4.6138045e+02 </wgt>
<wgt id='115'> +4.3895607e+02 </wgt>
<wgt id='116'> +5.2303026e+02 </wgt>
<wgt id='117'> +4.6990559e+02 </wgt>
<wgt id='118'> +5.2008934e+02 </wgt>
<wgt id='119'> +4.7455772e+02 </wgt>
<wgt id='120'> +4.6633235e+02 </wgt>
<wgt id='121'> +4.6717474e+02 </wgt>
<wgt id='122'> +4.7273802e+02 </wgt>
<wgt id='123'> +4.8588669e+02 </wgt>
<wgt id='124'> +5.5841086e+02 </wgt>
<wgt id='125'> +5.7196349e+02 </wgt>
<wgt id='126'> +4.9963309e+02 </wgt>
<wgt id='127'> +4.9381808e+02 </wgt>
<wgt id='128'> +4.3251860e+02 </wgt>
<wgt id='129'> +5.3954336e+02 </wgt>
<wgt id='130'> +4.7844977e+02 </wgt>
<wgt id='131'> +4.9048495e+02 </wgt>
<wgt id='132'> +5.2056391e+02 </wgt>
<wgt id='133'> +5.1389701e+02 </wgt>
<wgt id='134'> +4.7557553e+02 </wgt>
<wgt id='135'> +4.8265417e+02 </wgt>
<wgt id='136'> +5.1977342e+02 </wgt>
<wgt id='137'> +4.7329135e+02 </wgt>
<wgt id='138'> +4.7482779e+02 </wgt>
<wgt id='139'> +5.0260643e+02 </wgt>
<wgt id='140'> +4.8527052e+02 </wgt>
<wgt id='141'> +5.0540106e+02 </wgt>
<wgt id='142'> +4.1758242e+02 </wgt>
<wgt id='143'> +4.9655343e+02 </wgt>
<wgt id='144'> +4.5475242e+02 </wgt>
<wgt id='145'> +4.7042999e+02 </wgt>
</rwgt>
</event>
<event>
 8      1 +4.8159400e+02 1.94915000e+02 7.54677100e-03 1.15418600e-01
       21 -1    0    0  501  502 +0.0000000000e+00 +0.0000000000e+00 +2.3239393565e+02 2.3239393565e+02 0.0000000000e+00 0.0000e+00 -1.0000e+00
       21 -1    0    0  502  503 -0.0000000000e+00 -0.0000000000e+00 -1.6805052236e+02 1.6805052236e+02 0.0000000000e+00 0.0000e+00 -1.0000e+00
        6  2    1    2  501    0 -2.5144903818e+01 -8.4928766471e+01 -2.0293069549e+00 1.9453868013e+02 1.7319358654e+02 0.0000e+00 0.0000e+00
       -6  2    1    2    0  503 +2.5144903818e+01 +8.4928766471e+01 +6.6372720252e+01 2.0590577788e+02 1.7362802138e+02 0.0000e+00 0.0000e+00
        5  1    3    3  501    0 -6.3672082607e+01 -6.8411735189e+01 -3.2204068946e+01 9.8962071885e+01 4.7000000000e+00 0.0000e+00 -1.0000e+00
       24  1    3    3    0    0 +3.8527178790e+01 -1.6517031282e+01 +3.0174761991e+01 9.5576608244e+01 8.0419002446e+01 0.0000e+00 -1.0000e+00
       -5  1    4    4    0  503 +1.2317334169e+01 +6.8502845086e+01 -3.2336329133e+01 7.6890081855e+01 4.7000000000e+00 0.0000e+00 1.0000e+00
      -24  1    4    4    0    0 +1.2827569648e+01 +1.6425921385e+01 +9.8709049385e+01 1.2901569603e+02 8.0419002446e+01 0.0000e+00 0.0000e+00
<mgrwt>
<rscale>  2 0.19481819E+03</rscale>
<asrwt>0</asrwt>
<pdfrwt beam="1">  1       21 0.35752913E-01 0.19491498E+03</pdfrwt>
<pdfrwt beam="2">  1       21 0.25853927E-01 0.19491498E+03</pdfrwt>
<totfact> 0.10706042E+05</totfact>
</mgrwt>
<rwgt>
<wgt id='1'> +6.1335980e+02 </wgt>
<wgt id='2'> +5.4809568e+02 </wgt>
<wgt id='3'> +5.0595250e+02 </wgt>
<wgt id='4'> +6.4634395e+02 </wgt>
<wgt id='5'> +4.7929001e+02 </wgt>
<wgt id='6'> +5.9064897e+02 </wgt>
<wgt id='7'> +5.2240578e+02 </wgt>
<wgt id='8'> +4.7918335e+02 </wgt>
<wgt id='9'> +6.2469981e+02 </wgt>
<wgt id='10'> +4.5304959e+02 </wgt>
<wgt id='11'> +5.5836377e+02 </wgt>
<wgt id='12'> +4.9353427e+02 </wgt>
<wgt id='13'> +4.5254482e+02 </wgt>
<wgt id='14'> +5.9164793e+02 </wgt>
<wgt id='15'> +4.2779214e+02 </wgt>
<wgt id='16'> +5.0011160e+02 </wgt>
<wgt id='17'> +4.5451484e+02 </wgt>
<wgt id='18'> +4.2414834e+02 </wgt>
<wgt id='19'> +5.2348237e+02 </wgt>
<wgt id='20'> +4.0378574e+02 </wgt>
<wgt id='21'> +4.3321119e+02 </wgt>
<wgt id='22'> +4.0170732e+02 </wgt>
<wgt id='23'> +5.0595250e+02 </wgt>
<wgt id='24'> +3.8167907e+02 </wgt>
<wgt id='25'> +4.5526980e+02 </wgt>
<wgt id='26'> +4.0926914e+02 </wgt>
<wgt id='27'> +3.7937580e+02 </wgt>
<wgt id='28'> +4.7918335e+02 </wgt>
<wgt id='29'> +3.6040052e+02 </wgt>
<wgt id='30'> +4.2117322e+02 </wgt>
<wgt id='31'> +3.8524900e+02 </wgt>
<wgt id='32'> +3.6111042e+02 </wgt>
<wgt id='33'> +4.3884392e+02 </wgt>
<wgt id='34'> +3.4477832e+02 </wgt>
<wgt id='35'> +4.0557847e+02 </wgt>
<wgt id='36'> +3.6719192e+02 </wgt>
<wgt id='37'> +3.4200464e+02 </wgt>
<wgt id='38'> +4.2414834e+02 </wgt>
<wgt id='39'> +3.2590222e+02 </wgt>
<wgt id='40'> +3.8340932e+02 </wgt>
<wgt id='41'> +3.4689853e+02 </wgt>
<wgt id='42'> +3.2299208e+02 </wgt>
<wgt id='43'> +4.0170732e+02 </wgt>
<wgt id='44'> +3.0773322e+02 </wgt>
<wgt id='45'> +4.8159400e+02 </wgt>
<wgt id='46'> +4.7833904e+02 </wgt>
<wgt id='47'> +4.9706004e+02 </wgt>
<wgt id='48'> +4.8105401e+02 </wgt>
<wgt id='49'> +4.8100948e+02 </wgt>
<wgt id='50'> +5.5296439e+02 </wgt>
<wgt id='51'> +4.7238657e+02 </wgt>
<wgt id='52'> +4.7785909e+02 </wgt>
<wgt id='53'> +4.9028252e+02 </wgt>
<wgt id='54'> +4.8427591e+02 </wgt>
<wgt id='55'> +4.3045372e+02 </wgt>
<wgt id='56'> +4.5205806e+02 </wgt>
<wgt id='57'> +4.6828082e+02 </wgt>
<wgt id='58'> +4.8790358e+02 </wgt>
<wgt id='59'> +4.7025136e+02 </wgt>
<wgt id='60'> +4.5816609e+02 </wgt>
<wgt id='61'> +4.7705792e+02 </wgt>
<wgt id='62'> +4.7481657e+02 </wgt>
<wgt id='63'> +4.8204025e+02 </wgt>
<wgt id='64'> +4.8032630e+02 </wgt>
<wgt id='65'> +5.6927290e+02 </wgt>
<wgt id='66'> +4.6958923e+02 </wgt>
<wgt id='67'> +4.8599322e+02 </wgt>
<wgt id='68'> +5.1144404e+02 </wgt>
<wgt id='69'> +4.6601211e+02 </wgt>
<wgt id='70'> +4.7425273e+02 </wgt>
<wgt id='71'> +4.9085963e+02 </wgt>
<wgt id='72'> +4.7363154e+02 </wgt>
<wgt id='73'> +4.7695258e+02 </wgt>
<wgt id='74'> +4.9206928e+02 </wgt>
<wgt id='75'> +4.9145744e+02 </wgt>
<wgt id='76'> +4.6809130e+02 </wgt>
<wgt id='77'> +4.6175321e+02 </wgt>
<wgt id='78'> +4.8619475e+02 </wgt>
<wgt id='79'> +4.5964560e+02 </wgt>
<wgt id='80'> +4.7900931e+02 </wgt>
<wgt id='81'> +4.7404488e+02 </wgt>
<wgt id='82'> +4.9710964e+02 </wgt>
<wgt id='83'> +4.9018625e+02 </wgt>
<wgt id='84'> +5.2751207e+02 </wgt>
<wgt id='85'> +5.0725120e+02 </wgt>
<wgt id='86'> +4.7647604e+02 </wgt>
<wgt id='87'> +4.8030781e+02 </wgt>
<wgt id='88'> +4.8932390e+02 </wgt>
<wgt id='89'> +4.9139101e+02 </wgt>
<wgt id='90'> +4.8542874e+02 </wgt>
<wgt id='91'> +5.1381981e+02 </wgt>
<wgt id='92'> +4.4884128e+02 </wgt>
<wgt id='93'> +4.7143697e+02 </wgt>
<wgt id='94'> +4.8157466e+02 </wgt>
<wgt id='95'> +4.6288781e+02 </wgt>
<wgt id='96'> +5.1636932e+02 </wgt>
<wgt id='97'> +4.9130390e+02 </wgt>
<wgt id='98'> +4.5847298e+02 </wgt>
<wgt id='99'> +4.6924710e+02 </wgt>
<wgt id='100'> +4.8404011e+02 </wgt>
<wgt id='101'> +4.9838677e+02 </wgt>
<wgt id='102'> +4.6155289e+02 </wgt>
<wgt id='103'> +5.2009366e+02 </wgt>
<wgt id='104'> +4.7915623e+02 </wgt>
<wgt id='105'> +5.0269977e+02 </wgt>
<wgt id='106'> +4.4848174e+02 </wgt>
<wgt id='107'> +4.8155968e+02 </wgt>
<wgt id='108'> +4.3727309e+02 </wgt>
<wgt id='109'> +4.5574344e+02 </wgt>
<wgt id='110'> +4.8356752e+02 </wgt>
<wgt id='111'> +4.7098249e+02 </wgt>
<wgt id='112'> +4.6302904e+02 </wgt>
<wgt id='113'> +4.4479475e+02 </wgt>
<wgt id='114'> +4.8621108e+02 </wgt>
<wgt id='115'> +4.8953156e+02 </wgt>
<wgt id='116'> +4.7604768e+02 </wgt>
<wgt id='117'> +4.9055636e+02 </wgt>
<wgt id='118'> +4.8904023e+02 </wgt>
<wgt id='119'> +4.6436726e+02 </wgt>
<wgt id='120'> +4.8420329e+02 </wgt>
<wgt id='121'> +4.6947744e+02 </wgt>
<wgt id='122'> +4.7595784e+02 </wgt>
<wgt id='123'> +4.8684999e+02 </wgt>
<wgt id='124'> +5.0786130e+02 </wgt>
<wgt id='125'> +5.0951668e+02 </wgt>
<wgt id='126'> +4.9830832e+02 </wgt>
<wgt id='127'> +4.9412961e+02 </wgt>
<wgt id='128'> +4.5097018e+02 </wgt>
<wgt id='129'> +5.4322783e+02 </wgt>
<wgt id='130'> +4.8496888e+02 </wgt>
<wgt id='131'> +5.1630328e+02 </wgt>
<wgt id='132'> +4.7167475e+02 </wgt>
<wgt id='133'> +4.7432913e+02 </wgt>
<wgt id='134'> +4.5181291e+02 </wgt>
<wgt id='135'> +4.9404636e+02 </wgt>
<wgt id='136'> +4.5777039e+02 </wgt>
<wgt id='137'> +4.5227274e+02 </wgt>
<wgt id='138'> +4.3420064e+02 </wgt>
<wgt id='139'> +4.8870081e+02 </wgt>
<wgt id='140'> +5.1440287e+02 </wgt>
<wgt id='141'> +4.7963869e+02 </wgt>
<wgt id='142'> +4.9022854e+02 </wgt>
<wgt id='143'> +4.7483507e+02 </wgt>
<wgt id='144'> +4.8377360e+02 </wgt>
<wgt id='145'> +4.8262315e+02 </wgt>
</rwgt>
</event>
<event>
 8      1 +4.8159400e+02 1.92996000e+02 7.54677100e-03 1.15578700e-01
       -2 -1    0    0    0  501 -0.0000000000e+00 +0.0000000000e+00 +8.0533091187e+01 8.0533091187e+01 0.0000000000e+00 0.0000e+00 1.0000e+00
        2 -1    0    0  502    0 +0.0000000000e+00 -0.0000000000e+00 -9.3503155455e+02 9.3503155455e+02 0.0000000000e+00 0.0000e+00 -1.0000e+00
        6  2    1    2  502    0 -6.0166466211e+01 -5.3650113405e+01 -7.8954657404e+02 8.1308351674e+02 1.7669938962e+02 0.0000e+00 0.0000e+00
       -6  2    1    2    0  501 +6.0166466211e+01 +5.3650113405e+01 -6.4951889323e+01 2.0248112900e+02 1.7401586522e+02 0.0000e+00 0.0000e+00
        5  1    3    3  502    0 -3.7511076356e+01 -4.2937142425e+01 -6.3066284880e+02 6.3325223877e+02 4.7000000000e+00 0.0000e+00 -1.0000e+00
       24  1    3    3    0    0 -2.2655389855e+01 -1.0712970980e+01 -1.5888372524e+02 1.7983127797e+02 8.0419002446e+01 0.0000e+00 -1.0000e+00
       -5  1    4    4    0  501 +9.4324899780e+01 +3.8856756840e+01 -2.4241056462e+01 1.0496072165e+02 4.7000000000e+00 0.0000e+00 1.0000e+00
      -24  1    4    4    0    0 -3.4158433569e+01 +1.4793356566e+01 -4.0710832861e+01 9.7520407346e+01 8.0419002446e+01 0.0000e+00 1.0000e+00
<mgrwt>
<rscale>  2 0.19299602E+03</rscale>
<asrwt>0</asrwt>
<pdfrwt beam="2">  1        2 0.14385101E+00 0.19299602E+03</pdfrwt>
<pdfrwt beam="1">  1       -2 0.12389706E-01 0.19299602E+03</pdfrwt>
<totfact> 0.13539984E+03</totfact>
</mgrwt>
<rwgt>
<wgt id='1'> +5.8813088e+02 </wgt>
<wgt id='2'> +5.4246727e+02 </wgt>
<wgt id='3'> +5.0144832e+02 </wgt>
<wgt id='4'> +6.1570170e+02 </wgt>
<wgt id='5'> +4.4054254e+02 </wgt>
<wgt id='6'> +5.9092240e+02 </wgt>
<wgt id='7'> +5.4373319e+02 </wgt>
<wgt id='8'> +5.0149824e+02 </wgt>
<wgt id='9'> +6.1951268e+02 </wgt>
<wgt id='10'> +4.3899979e+02 </wgt>
<wgt id='11'> +5.9029791e+02 </wgt>
<wgt id='12'> +5.4211877e+02 </wgt>
<wgt id='13'> +4.9915003e+02 </wgt>
<wgt id='14'> +6.1957435e+02 </wgt>
<wgt id='15'> +4.3576539e+02 </wgt>
<wgt id='16'> +4.7931895e+02 </wgt>
<wgt id='17'> +4.4856512e+02 </wgt>
<wgt id='18'> +4.2014049e+02 </wgt>
<wgt id='19'> +4.9836363e+02 </wgt>
<wgt id='20'> +3.7359343e+02 </wgt>
<wgt id='21'> +4.4961190e+02 </wgt>
<wgt id='22'> +4.2018231e+02 </wgt>
<wgt id='23'> +5.0144832e+02 </wgt>
<wgt id='24'> +3.7228512e+02 </wgt>
<wgt id='25'> +4.8108504e+02 </wgt>
<wgt id='26'> +4.4827694e+02 </wgt>
<wgt id='27'> +4.1821486e+02 </wgt>
<wgt id='28'> +5.0149824e+02 </wgt>
<wgt id='29'> +3.6954226e+02 </wgt>
<wgt id='30'> +4.0355955e+02 </wgt>
<wgt id='31'> +3.7978463e+02 </wgt>
<wgt id='32'> +3.5759924e+02 </wgt>
<wgt id='33'> +4.1755596e+02 </wgt>
<wgt id='34'> +3.2082166e+02 </wgt>
<wgt id='35'> +4.0547502e+02 </wgt>
<wgt id='36'> +3.8067091e+02 </wgt>
<wgt id='37'> +3.5763485e+02 </wgt>
<wgt id='38'> +4.2014049e+02 </wgt>
<wgt id='39'> +3.1969816e+02 </wgt>
<wgt id='40'> +4.0504650e+02 </wgt>
<wgt id='41'> +3.7954064e+02 </wgt>
<wgt id='42'> +3.5596026e+02 </wgt>
<wgt id='43'> +4.2018231e+02 </wgt>
<wgt id='44'> +3.1734273e+02 </wgt>
<wgt id='45'> +4.8159400e+02 </wgt>
<wgt id='46'> +4.8425087e+02 </wgt>
<wgt id='47'> +4.6680754e+02 </wgt>
<wgt id='48'> +4.7167781e+02 </wgt>
<wgt id='49'> +4.7640927e+02 </wgt>
<wgt id='50'> +4.3367423e+02 </wgt>
<wgt id='51'> +4.8973754e+02 </wgt>
<wgt id='52'> +4.7511841e+02 </wgt>
<wgt id='53'> +4.9433169e+02 </wgt>
<wgt id='54'> +4.7030419e+02 </wgt>
<wgt id='55'> +4.6002778e+02 </wgt>
<wgt id='56'> +5.2346210e+02 </wgt>
<wgt id='57'> +4.7038314e+02 </wgt>
<wgt id='58'> +4.9530985e+02 </wgt>
<wgt id='59'> +4.5262256e+02 </wgt>
<wgt id='60'> +4.8151015e+02 </wgt>
<wgt id='61'> +5.3415843e+02 </wgt>
<wgt id='62'> +5.0354442e+02 </wgt>
<wgt id='63'> +4.8802494e+02 </wgt>
<wgt id='64'> +4.7585598e+02 </wgt>
<wgt id='65'> +4.7093916e+02 </wgt>
<wgt id='66'> +5.0039908e+02 </wgt>
<wgt id='67'> +4.9261380e+02 </wgt>
<wgt id='68'> +3.9799198e+02 </wgt>
<wgt id='69'> +4.5082569e+02 </wgt>
<wgt id='70'> +4.6655811e+02 </wgt>
<wgt id='71'> +4.9251405e+02 </wgt>
<wgt id='72'> +4.9842432e+02 </wgt>
<wgt id='73'> +4.9486928e+02 </wgt>
<wgt id='74'> +4.2778649e+02 </wgt>
<wgt id='75'> +4.5459198e+02 </wgt>
<wgt id='76'> +5.0115015e+02 </wgt>
<wgt id='77'> +5.0142277e+02 </wgt>
<wgt id='78'> +5.0936436e+02 </wgt>
<wgt id='79'> +4.8612091e+02 </wgt>
<wgt id='80'> +5.2510993e+02 </wgt>
<wgt id='81'> +4.8515847e+02 </wgt>
<wgt id='82'> +4.7789051e+02 </wgt>
<wgt id='83'> +4.6540354e+02 </wgt>
<wgt id='84'> +4.8091903e+02 </wgt>
<wgt id='85'> +4.8161913e+02 </wgt>
<wgt id='86'> +4.7979921e+02 </wgt>
<wgt id='87'> +4.8625709e+02 </wgt>
<wgt id='88'> +4.8561537e+02 </wgt>
<wgt id='89'> +4.9516770e+02 </wgt>
<wgt id='90'> +5.2481093e+02 </wgt>
<wgt id='91'> +4.5663193e+02 </wgt>
<wgt id='92'> +5.1590968e+02 </wgt>
<wgt id='93'> +4.7077326e+02 </wgt>
<wgt id='94'> +4.8996871e+02 </wgt>
<wgt id='95'> +4.7859890e+02 </wgt>
<wgt id='96'> +4.6737603e+02 </wgt>
<wgt id='97'> +5.0234101e+02 </wgt>
<wgt id='98'> +4.9003510e+02 </wgt>
<wgt id='99'> +5.0620203e+02 </wgt>
<wgt id='100'> +5.2817878e+02 </wgt>
<wgt id='101'> +4.1438921e+02 </wgt>
<wgt id='102'> +4.4623365e+02 </wgt>
<wgt id='103'> +4.6353487e+02 </wgt>
<wgt id='104'> +4.6656167e+02 </wgt>
<wgt id='105'> +4.7589782e+02 </wgt>
<wgt id='106'> +5.1742787e+02 </wgt>
<wgt id='107'> +4.7639828e+02 </wgt>
<wgt id='108'> +5.4052987e+02 </wgt>
<wgt id='109'> +5.0561845e+02 </wgt>
<wgt id='110'> +5.0299861e+02 </wgt>
<wgt id='111'> +5.0593778e+02 </wgt>
<wgt id='112'> +4.9453016e+02 </wgt>
<wgt id='113'> +4.8416038e+02 </wgt>
<wgt id='114'> +4.8446543e+02 </wgt>
<wgt id='115'> +5.1302520e+02 </wgt>
<wgt id='116'> +4.5620828e+02 </wgt>
<wgt id='117'> +4.8473781e+02 </wgt>
<wgt id='118'> +4.4739189e+02 </wgt>
<wgt id='119'> +4.8221719e+02 </wgt>
<wgt id='120'> +4.8216406e+02 </wgt>
<wgt id='121'> +4.8285440e+02 </wgt>
<wgt id='122'> +4.9662836e+02 </wgt>
<wgt id='123'> +5.1854373e+02 </wgt>
<wgt id='124'> +4.4446131e+02 </wgt>
<wgt id='125'> +4.1210533e+02 </wgt>
<wgt id='126'> +4.7880642e+02 </wgt>
<wgt id='127'> +4.7492384e+02 </wgt>
<wgt id='128'> +4.9785141e+02 </wgt>
<wgt id='129'> +4.4210075e+02 </wgt>
<wgt id='130'> +4.7397259e+02 </wgt>
<wgt id='131'> +4.7428985e+02 </wgt>
<wgt id='132'> +4.4729094e+02 </wgt>
<wgt id='133'> +4.7231986e+02 </wgt>
<wgt id='134'> +4.6948277e+02 </wgt>
<wgt id='135'> +4.7008714e+02 </wgt>
<wgt id='136'> +4.5423708e+02 </wgt>
<wgt id='137'> +5.0248309e+02 </wgt>
<wgt id='138'> +4.9620203e+02 </wgt>
<wgt id='139'> +4.7550355e+02 </wgt>
<wgt id='140'> +4.6718627e+02 </wgt>
<wgt id='141'> +4.5370789e+02 </wgt>
<wgt id='142'> +5.3946608e+02 </wgt>
<wgt id='143'> +4.9572181e+02 </wgt>
<wgt id='144'> +5.1713126e+02 </wgt>
<wgt id='145'> +4.9823789e+02 </wgt>
</rwgt>
</event>
<event>
 8      1 +4.8159400e+02 2.51225000e+02 7.54677100e-03 1.11262700e-01
       21 -1    0    0  501  502 +0.0000000000e+00 +0.0000000000e+00 +8.7803774923e+01 8.7803774923e+01 0.0000000000e+00 0.0000e+00 1.0000e+00
       21 -1    0    0  502  503 -0.0000000000e+00 -0.0000000000e+00 -1.1060707575e+03 1.1060707575e+03 0.0000000000e+00 0.0000e+00 1.0000e+00
       -6  2    1    2    0  503 +2.1508043754e+01 -1.8094733671e+02 -8.6352416189e+02 8.9932640281e+02 1.7294353418e+02 0.0000e+00 0.0000e+00
        6  2    1    2  501    0 -2.1508043754e+01 +1.8094733671e+02 -1.5474282070e+02 2.9454812962e+02 1.7207186144e+02 0.0000e+00 0.0000e+00
        5  1    4    4  501    0 -3.9736113314e+01 +1.2181686002e+02 -2.6348866143e+01 1.3089942259e+02 4.7000000000e+00 0.0000e+00 -1.0000e+00
       24  1    4    4    0    0 +1.8228069560e+01 +5.9130476688e+01 -1.2839395456e+02 1.6364870703e+02 8.0419002446e+01 0.0000e+00 1.0000e+00
       -5  1    3    3    0  503 -4.5300717441e+00 -1.1153335763e+02 -6.4880044414e+02 6.5834969259e+02 4.7000000000e+00 0.0000e+00 1.0000e+00
      -24  1    3    3    0    0 +2.6038115498e+01 -6.9413979084e+01 -2.1472371775e+02 2.4097671022e+02 8.0419002446e+01 0.0000e+00 1.0000e+00
<mgrwt>
<rscale>  2 0.25107505E+03</rscale>
<asrwt>0</asrwt>
<pdfrwt beam="1">  1       21 0.13508274E-01 0.25122500E+03</pdfrwt>
<pdfrwt beam="2">  1       21 0.17016472E+00 0.25122500E+03</pdfrwt>
<totfact> 0.96826060E+03</totfact>
</mgrwt>
<rwgt>
<wgt id='1'> +6.4487793e+02 </wgt>
<wgt id='2'> +5.3481039e+02 </wgt>
<wgt id='3'> +5.0340360e+02 </wgt>
<wgt id='4'> +6.7613814e+02 </wgt>
<wgt id='5'> +4.4142058e+02 </wgt>
<wgt id='6'> +5.8263358e+02 </wgt>
<wgt id='7'> +4.7987996e+02 </wgt>
<wgt id='8'> +4.5200054e+02 </wgt>
<wgt id='9'> +6.1246214e+02 </wgt>
<wgt id='10'> +3.9697278e+02 </wgt>
<wgt id='11'> +5.2341979e+02 </wgt>
<wgt id='12'> +4.3204877e+02 </wgt>
<wgt id='13'> +4.0725923e+02 </wgt>
<wgt id='14'> +5.4992299e+02 </wgt>
<wgt id='15'> +3.5830220e+02 </wgt>
<wgt id='16'> +5.3304401e+02 </wgt>
<wgt id='17'> +4.5039204e+02 </wgt>
<wgt id='18'> +4.2523059e+02 </wgt>
<wgt id='19'> +5.5574109e+02 </wgt>
<wgt id='20'> +3.7525864e+02 </wgt>
<wgt id='21'> +4.0413223e+02 </wgt>
<wgt id='22'> +3.8180986e+02 </wgt>
<wgt id='23'> +5.0340360e+02 </wgt>
<wgt id='24'> +3.3747286e+02 </wgt>
<wgt id='25'> +4.3264899e+02 </wgt>
<wgt id='26'> +3.6385106e+02 </wgt>
<wgt id='27'> +3.4401638e+02 </wgt>
<wgt id='28'> +4.5200054e+02 </wgt>
<wgt id='29'> +3.0459838e+02 </wgt>
<wgt id='30'> +4.5124288e+02 </wgt>
<wgt id='31'> +3.8447272e+02 </wgt>
<wgt id='32'> +3.6393791e+02 </wgt>
<wgt id='33'> +4.6944065e+02 </wgt>
<wgt id='34'> +3.2293058e+02 </wgt>
<wgt id='35'> +4.0768841e+02 </wgt>
<wgt id='36'> +3.4498348e+02 </wgt>
<wgt id='37'> +3.2677584e+02 </wgt>
<wgt id='38'> +4.2523059e+02 </wgt>
<wgt id='39'> +2.9041385e+02 </wgt>
<wgt id='40'> +3.6625451e+02 </wgt>
<wgt id='41'> +3.1059786e+02 </wgt>
<wgt id='42'> +2.9442990e+02 </wgt>
<wgt id='43'> +3.8180986e+02 </wgt>
<wgt id='44'> +2.6212357e+02 </wgt>
<wgt id='45'> +4.8159400e+02 </wgt>
<wgt id='46'> +4.9611746e+02 </wgt>
<wgt id='47'> +4.9928051e+02 </wgt>
<wgt id='48'> +4.8279139e+02 </wgt>
<wgt id='49'> +4.5200408e+02 </wgt>
<wgt id='50'> +5.7759673e+02 </wgt>
<wgt id='51'> +4.5738116e+02 </wgt>
<wgt id='52'> +4.6037948e+02 </wgt>
<wgt id='53'> +4.8004572e+02 </wgt>
<wgt id='54'> +5.0607907e+02 </wgt>
<wgt id='55'> +5.1075619e+02 </wgt>
<wgt id='56'> +4.5055642e+02 </wgt>
<wgt id='57'> +5.0414238e+02 </wgt>
<wgt id='58'> +4.4399615e+02 </wgt>
<wgt id='59'> +5.1841788e+02 </wgt>
<wgt id='60'> +4.8036922e+02 </wgt>
<wgt id='61'> +4.2928066e+02 </wgt>
<wgt id='62'> +4.5254730e+02 </wgt>
<wgt id='63'> +5.0028779e+02 </wgt>
<wgt id='64'> +4.7818180e+02 </wgt>
<wgt id='65'> +4.7507780e+02 </wgt>
<wgt id='66'> +4.8303252e+02 </wgt>
<wgt id='67'> +4.8424351e+02 </wgt>
<wgt id='68'> +5.6937807e+02 </wgt>
<wgt id='69'> +5.1067928e+02 </wgt>
<wgt id='70'> +5.0260604e+02 </wgt>
<wgt id='71'> +4.6102315e+02 </wgt>
<wgt id='72'> +4.4564404e+02 </wgt>
<wgt id='73'> +4.4207511e+02 </wgt>
<wgt id='74'> +5.4022630e+02 </wgt>
<wgt id='75'> +5.1338004e+02 </wgt>
<wgt id='76'> +4.8940239e+02 </wgt>
<wgt id='77'> +4.6122928e+02 </wgt>
<wgt id='78'> +4.2707058e+02 </wgt>
<wgt id='79'> +5.0216068e+02 </wgt>
<wgt id='80'> +4.3923845e+02 </wgt>
<wgt id='81'> +4.8861665e+02 </wgt>
<wgt id='82'> +4.6884606e+02 </wgt>
<wgt id='83'> +4.8015027e+02 </wgt>
<wgt id='84'> +4.8837745e+02 </wgt>
<wgt id='85'> +4.5246021e+02 </wgt>
<wgt id='86'> +4.9930819e+02 </wgt>
<wgt id='87'> +4.7886590e+02 </wgt>
<wgt id='88'> +4.7507152e+02 </wgt>
<wgt id='89'> +4.3567459e+02 </wgt>
<wgt id='90'> +4.6338373e+02 </wgt>
<wgt id='91'> +4.4309581e+02 </wgt>
<wgt id='92'> +4.4361515e+02 </wgt>
<wgt id='93'> +4.8440752e+02 </wgt>
<wgt id='94'> +4.4778092e+02 </wgt>
<wgt id='95'> +4.9762886e+02 </wgt>
<wgt id='96'> +5.1009551e+02 </wgt>
<wgt id='97'> +4.4824222e+02 </wgt>
<wgt id='98'> +5.0269136e+02 </wgt>
<wgt id='99'> +4.1853844e+02 </wgt>
<wgt id='100'> +3.8895930e+02 </wgt>
<wgt id='101'> +5.5719734e+02 </wgt>
<wgt id='102'> +5.3087256e+02 </wgt>
<wgt id='103'> +4.8040434e+02 </wgt>
<wgt id='104'> +5.0833278e+02 </wgt>
<wgt id='105'> +4.9408629e+02 </wgt>
<wgt id='106'> +4.5500221e+02 </wgt>
<wgt id='107'> +4.5891610e+02 </wgt>
<wgt id='108'> +4.3910958e+02 </wgt>
<wgt id='109'> +4.6774310e+02 </wgt>
<wgt id='110'> +4.5243833e+02 </wgt>
<wgt id='111'> +4.6827776e+02 </wgt>
<wgt id='112'> +4.8678685e+02 </wgt>
<wgt id='113'> +4.8311139e+02 </wgt>
<wgt id='114'> +4.8998686e+02 </wgt>
<wgt id='115'> +4.4539492e+02 </wgt>
<wgt id='116'> +5.2240702e+02 </wgt>
<wgt id='117'> +4.7210541e+02 </wgt>
<wgt id='118'> +5.0222379e+02 </wgt>
<wgt id='119'> +5.0809345e+02 </wgt>
<wgt id='120'> +4.8051795e+02 </wgt>
<wgt id='121'> +4.7418091e+02 </wgt>
<wgt id='122'> +4.7269493e+02 </wgt>
<wgt id='123'> +4.6943837e+02 </wgt>
<wgt id='124'> +5.4530142e+02 </wgt>
<wgt id='125'> +5.8677535e+02 </wgt>
<wgt id='126'> +4.8005859e+02 </wgt>
<wgt id='127'> +4.7212039e+02 </wgt>
<wgt id='128'> +4.5430849e+02 </wgt>
<wgt id='129'> +5.0904056e+02 </wgt>
<wgt id='130'> +4.6812777e+02 </wgt>
<wgt id='131'> +4.6122874e+02 </wgt>
<wgt id='132'> +5.2308039e+02 </wgt>
<wgt id='133'> +5.1798664e+02 </wgt>
<wgt id='134'> +4.9386346e+02 </wgt>
<wgt id='135'> +4.6868351e+02 </wgt>
<wgt id='136'> +5.4836711e+02 </wgt>
<wgt id='137'> +4.9034680e+02 </wgt>
<wgt id='138'> +4.8263441e+02 </wgt>
<wgt id='139'> +4.9670869e+02 </wgt>
<wgt id='140'> +4.7651144e+02 </wgt>
<wgt id='141'> +5.2904659e+02 </wgt>
<wgt id='142'> +3.7305419e+02 </wgt>
<wgt id='143'> +4.9383328e+02 </wgt>
<wgt id='144'> +4.4607620e+02 </wgt>
<wgt id='145'> +4.5376250e+02 </wgt>
</rwgt>
</event>
<event>
 8      1 +4.8159400e+02 1.96348500e+02 7.54677100e-03 1.15293500e-01
       21 -1    0    0  503  502 +0.0000000000e+00 +0.0000000000e+00 +3.8499001176e+02 3.8499001176e+02 0.0000000000e+00 0.0000e+00 -1.0000e+00
       21 -1    0    0  501  503 -0.0000000000e+00 -0.0000000000e+00 -1.1994006197e+02 1.1994006197e+02 0.0000000000e+00 0.0000e+00 1.0000e+00
        6  2    1    2  501    0 +8.7696040497e+01 -3.0847157783e+01 +2.9366788029e+01 1.9817400718e+02 1.7253517387e+02 0.0000e+00 0.0000e+00
       -6  2    1    2    0  502 -8.7696040497e+01 +3.0847157783e+01 +2.3568316176e+02 3.0675606655e+02 1.7294678073e+02 0.0000e+00 0.0000e+00
        5  1    3    3  501    0 -2.4136866530e+01 +3.5221018155e+01 +1.0691297227e+01 4.4266265736e+01 4.7000000000e+00 0.0000e+00 -1.0000e+00
       24  1    3    3    0    0 +1.1183290703e+02 -6.6068175938e+01 +1.8675490802e+01 1.5390774145e+02 8.0419002446e+01 0.0000e+00 0.0000e+00
       -5  1    4    4    0  502 +3.0056266470e+01 +1.7966772010e+01 +1.1238771675e+02 1.1781032607e+02 4.7000000000e+00 0.0000e+00 1.0000e+00
      -24  1    4    4    0    0 -1.1775230697e+02 +1.2880385773e+01 +1.2329544501e+02 1.8894574049e+02 8.0419002446e+01 0.0000e+00 -1.0000e+00
<mgrwt>
<rscale>  2 0.19625782E+03</rscale>
<asrwt>0</asrwt>
<pdfrwt beam="1">  1       21 0.59229232E-01 0.19634850E+03</pdfrwt>
<pdfrwt beam="2">  1       21 0.18452317E-01 0.19634850E+03</pdfrwt>
<totfact> 0.71321186E+04</totfact>
</mgrwt>
<rwgt>
<wgt id='1'> +6.1828330e+02 </wgt>
<wgt id='2'> +4.9584428e+02 </wgt>
<wgt id='3'> +4.8972544e+02 </wgt>
<wgt id='4'> +6.2935594e+02 </wgt>
<wgt id='5'> +4.6665543e+02 </wgt>
<wgt id='6'> +5.9042908e+02 </wgt>
<wgt id='7'> +4.6564920e+02 </wgt>
<wgt id='8'> +4.5973033e+02 </wgt>
<wgt id='9'> +6.0177613e+02 </wgt>
<wgt id='10'> +4.3783315e+02 </wgt>
<wgt id='11'> +5.5405450e+02 </wgt>
<wgt id='12'> +4.3677798e+02 </wgt>
<wgt id='13'> +4.3122403e+02 </wgt>
<wgt id='14'> +5.6491805e+02 </wgt>
<wgt id='15'> +4.1068488e+02 </wgt>
<wgt id='16'> +5.0431379e+02 </wgt>
<wgt id='17'> +4.1665528e+02 </wgt>
<wgt id='18'> +4.1195705e+02 </wgt>
<wgt id='19'> +5.1216989e+02 </wgt>
<wgt id='20'> +3.9383683e+02 </wgt>
<wgt id='21'> +3.9128251e+02 </wgt>
<wgt id='22'> +3.8672517e+02 </wgt>
<wgt id='23'> +4.8972544e+02 </wgt>
<wgt id='24'> +3.6951208e+02 </wgt>
<wgt id='25'> +4.5192442e+02 </wgt>
<wgt id='26'> +3.6702219e+02 </wgt>
<wgt id='27'> +3.6274566e+02 </wgt>
<wgt id='28'> +4.5973033e+02 </wgt>
<wgt id='29'> +3.4660013e+02 </wgt>
<wgt id='30'> +4.2479354e+02 </wgt>
<wgt id='31'> +3.5518630e+02 </wgt>
<wgt id='32'> +3.5140754e+02 </wgt>
<wgt id='33'> +4.3083732e+02 </wgt>
<wgt id='34'> +3.3678795e+02 </wgt>
<wgt id='35'> +4.0565621e+02 </wgt>
<wgt id='36'> +3.3355677e+02 </wgt>
<wgt id='37'> +3.2988424e+02 </wgt>
<wgt id='38'> +4.1195705e+02 </wgt>
<wgt id='39'> +3.1598674e+02 </wgt>
<wgt id='40'> +3.8066493e+02 </wgt>
<wgt id='41'> +3.1287556e+02 </wgt>
<wgt id='42'> +3.0942924e+02 </wgt>
<wgt id='43'> +3.8672517e+02 </wgt>
<wgt id='44'> +2.9639368e+02 </wgt>
<wgt id='45'> +4.8159400e+02 </wgt>
<wgt id='46'> +4.8317199e+02 </wgt>
<wgt id='47'> +4.9780102e+02 </wgt>
<wgt id='48'> +4.8324560e+02 </wgt>
<wgt id='49'> +4.7977743e+02 </wgt>
<wgt id='50'> +5.6175616e+02 </wgt>
<wgt id='51'> +4.7217263e+02 </wgt>
<wgt id='52'> +4.7963428e+02 </wgt>
<wgt id='53'> +4.8496815e+02 </wgt>
<wgt id='54'> +4.8474818e+02 </wgt>
<wgt id='55'> +4.3522337e+02 </wgt>
<wgt id='56'> +4.4711537e+02 </wgt>
<wgt id='57'> +4.7133898e+02 </wgt>
<wgt id='58'> +4.8330488e+02 </wgt>
<wgt id='59'> +4.7883815e+02 </wgt>
<wgt id='60'> +4.6576425e+02 </wgt>
<wgt id='61'> +4.6199698e+02 </wgt>
<wgt id='62'> +4.7504974e+02 </wgt>
<wgt id='63'> +4.8206546e+02 </wgt>
<wgt id='64'> +4.7606683e+02 </wgt>
<wgt id='65'> +5.6103946e+02 </wgt>
<wgt id='66'> +4.7066455e+02 </wgt>
<wgt id='67'> +4.8568504e+02 </wgt>
<wgt id='68'> +5.1761675e+02 </wgt>
<wgt id='69'> +4.7089365e+02 </wgt>
<wgt id='70'> +4.7392735e+02 </wgt>
<wgt id='71'> +4.9029798e+02 </wgt>
<wgt id='72'> +4.6843133e+02 </wgt>
<wgt id='73'> +4.7440960e+02 </wgt>
<wgt id='74'> +4.9750132e+02 </wgt>
<wgt id='75'> +4.9182530e+02 </wgt>
<wgt id='76'> +4.6914569e+02 </wgt>
<wgt id='77'> +4.6574979e+02 </wgt>
<wgt id='78'> +4.7862637e+02 </wgt>
<wgt id='79'> +4.6438170e+02 </wgt>
<wgt id='80'> +4.7636274e+02 </wgt>
<wgt id='81'> +4.7285528e+02 </wgt>
<wgt id='82'> +4.9132090e+02 </wgt>
<wgt id='83'> +4.9040185e+02 </wgt>
<wgt id='84'> +5.2610527e+02 </wgt>
<wgt id='85'> +5.0383580e+02 </wgt>
<wgt id='86'> +4.7904106e+02 </wgt>
<wgt id='87'> +4.8218285e+02 </wgt>
<wgt id='88'> +4.8847204e+02 </wgt>
<wgt id='89'> +4.9248928e+02 </wgt>
<wgt id='90'> +4.8809265e+02 </wgt>
<wgt id='91'> +5.0925071e+02 </wgt>
<wgt id='92'> +4.4397676e+02 </wgt>
<wgt id='93'> +4.7429385e+02 </wgt>
<wgt id='94'> +4.7784621e+02 </wgt>
<wgt id='95'> +4.6444539e+02 </wgt>
<wgt id='96'> +5.1861262e+02 </wgt>
<wgt id='97'> +4.8716922e+02 </wgt>
<wgt id='98'> +4.6141122e+02 </wgt>
<wgt id='99'> +4.6653237e+02 </wgt>
<wgt id='100'> +4.7422846e+02 </wgt>
<wgt id='101'> +5.0920467e+02 </wgt>
<wgt id='102'> +4.7174968e+02 </wgt>
<wgt id='103'> +5.2186264e+02 </wgt>
<wgt id='104'> +4.8106022e+02 </wgt>
<wgt id='105'> +5.0009849e+02 </wgt>
<wgt id='106'> +4.4332364e+02 </wgt>
<wgt id='107'> +4.7339443e+02 </wgt>
<wgt id='108'> +4.3127786e+02 </wgt>
<wgt id='109'> +4.5304279e+02 </wgt>
<wgt id='110'> +4.8208291e+02 </wgt>
<wgt id='111'> +4.6917010e+02 </wgt>
<wgt id='112'> +4.5885782e+02 </wgt>
<wgt id='113'> +4.4335161e+02 </wgt>
<wgt id='114'> +4.7866698e+02 </wgt>
<wgt id='115'> +4.7747698e+02 </wgt>
<wgt id='116'> +4.8326359e+02 </wgt>
<wgt id='117'> +4.8571427e+02 </wgt>
<wgt id='118'> +4.9505404e+02 </wgt>
<wgt id='119'> +4.6424651e+02 </wgt>
<wgt id='120'> +4.7667092e+02 </wgt>
<wgt id='121'> +4.6916469e+02 </wgt>
<wgt id='122'> +4.7572236e+02 </wgt>
<wgt id='123'> +4.8687377e+02 </wgt>
<wgt id='124'> +5.1625692e+02 </wgt>
<wgt id='125'> +5.1776999e+02 </wgt>
<wgt id='126'> +4.9898328e+02 </wgt>
<wgt id='127'> +4.9539608e+02 </wgt>
<wgt id='128'> +4.4563189e+02 </wgt>
<wgt id='129'> +5.4366964e+02 </wgt>
<wgt id='130'> +4.8336419e+02 </wgt>
<wgt id='131'> +5.1333234e+02 </wgt>
<wgt id='132'> +4.8158227e+02 </wgt>
<wgt id='133'> +4.8062212e+02 </wgt>
<wgt id='134'> +4.5598024e+02 </wgt>
<wgt id='135'> +4.9305214e+02 </wgt>
<wgt id='136'> +4.6755664e+02 </wgt>
<wgt id='137'> +4.5474242e+02 </wgt>
<wgt id='138'> +4.3986218e+02 </wgt>
<wgt id='139'> +4.9157708e+02 </wgt>
<wgt id='140'> +5.0897072e+02 </wgt>
<wgt id='141'> +4.8172264e+02 </wgt>
<wgt id='142'> +4.8025530e+02 </wgt>
<wgt id='143'> +4.8006336e+02 </wgt>
<wgt id='144'> +4.8037797e+02 </wgt>
<wgt id='145'> +4.8237291e+02 </wgt>
</rwgt>
</event>
<event>
 8      1 +4.8159400e+02 2.67677200e+02 7.54677100e-03 1.10275500e-01
       21 -1    0    0  503  502 +0.0000000000e+00 +0.0000000000e+00 +9.4818967382e+02 9.4818967382e+02 0.0000000000e+00 0.0000e+00 1.0000e+00
       21 -1    0    0  501  503 -0.0000000000e+00 -0.0000000000e+00 -1.3971564293e+02 1.3971564293e+02 0.0000000000e+00 0.0000e+00 1.0000e+00
        6  2    1    2  501    0 +9.2863951819e+01 -1.8135320630e+02 +3.4493620179e+01 2.6894453028e+02 1.7212975208e+02 0.0000e+00 0.0000e+00
       -6  2    1    2    0  502 -9.2863951819e+01 +1.8135320630e+02 +7.7398041072e+02 8.1896078647e+02 1.7360413191e+02 0.0000e+00 0.0000e+00
        5  1    3    3  501    0 +1.0757205245e+02 -7.6284195713e+01 +2.2976594270e+00 1.3197876429e+02 4.7000000000e+00 0.0000e+00 -1.0000e+00
       24  1    3    3    0    0 -1.4708100633e+01 -1.0506901059e+02 +3.2195960752e+01 1.3696576599e+02 8.0419002446e+01 0.0000e+00 0.0000e+00
       -5  1    4    4    0  502 -2.2160688918e+01 +1.2650425536e+02 +2.4714505940e+02 2.7856272749e+02 4.7000000000e+00 0.0000e+00 1.0000e+00
      -24  1    4    4    0    0 -7.0703262901e+01 +5.4848950943e+01 +5.2683535132e+02 5.4039805899e+02 8.0419002446e+01 0.0000e+00 1.0000e+00
<mgrwt>
<rscale>  2 0.26743843E+03</rscale>
<asrwt>0</asrwt>
<pdfrwt beam="1">  1       21 0.14587533E+00 0.26767722E+03</pdfrwt>
<pdfrwt beam="2">  1       21 0.21494715E-01 0.26767722E+03</pdfrwt>
<totfact> 0.61517871E+03</totfact>
</mgrwt>
<rwgt>
<wgt id='1'> +6.4535672e+02 </wgt>
<wgt id='2'> +5.0269869e+02 </wgt>
<wgt id='3'> +4.8960599e+02 </wgt>
<wgt id='4'> +6.5684026e+02 </wgt>
<wgt id='5'> +4.2545251e+02 </wgt>
<wgt id='6'> +5.8075892e+02 </wgt>
<wgt id='7'> +4.5058206e+02 </wgt>
<wgt id='8'> +4.3899525e+02 </wgt>
<wgt id='9'> +5.9162475e+02 </wgt>
<wgt id='10'> +3.8220090e+02 </wgt>
<wgt id='11'> +5.2083942e+02 </wgt>
<wgt id='12'> +4.0541995e+02 </wgt>
<wgt id='13'> +3.9514052e+02 </wgt>
<wgt id='14'> +5.3046829e+02 </wgt>
<wgt id='15'> +3.4471430e+02 </wgt>
<wgt id='16'> +5.3516169e+02 </wgt>
<wgt id='17'> +4.2520469e+02 </wgt>
<wgt id='18'> +4.1466171e+02 </wgt>
<wgt id='19'> +5.4357586e+02 </wgt>
<wgt id='20'> +3.6273579e+02 </wgt>
<wgt id='21'> +3.8112215e+02 </wgt>
<wgt id='22'> +3.7179799e+02 </wgt>
<wgt id='23'> +4.8960599e+02 </wgt>
<wgt id='24'> +3.2585998e+02 </wgt>
<wgt id='25'> +4.3190579e+02 </wgt>
<wgt id='26'> +3.4292205e+02 </wgt>
<wgt id='27'> +3.3465613e+02 </wgt>
<wgt id='28'> +4.3899525e+02 </wgt>
<wgt id='29'> +2.9389935e+02 </wgt>
<wgt id='30'> +4.5360304e+02 </wgt>
<wgt id='31'> +3.6433826e+02 </wgt>
<wgt id='32'> +3.5569637e+02 </wgt>
<wgt id='33'> +4.6037038e+02 </wgt>
<wgt id='34'> +3.1293050e+02 </wgt>
<wgt id='35'> +4.0819907e+02 </wgt>
<wgt id='36'> +3.2656596e+02 </wgt>
<wgt id='37'> +3.1892791e+02 </wgt>
<wgt id='38'> +4.1466171e+02 </wgt>
<wgt id='39'> +2.8111791e+02 </wgt>
<wgt id='40'> +3.6608334e+02 </wgt>
<wgt id='41'> +2.9383406e+02 </wgt>
<wgt id='42'> +2.8706766e+02 </wgt>
<wgt id='43'> +3.7179799e+02 </wgt>
<wgt id='44'> +2.5354562e+02 </wgt>
<wgt id='45'> +4.8159400e+02 </wgt>
<wgt id='46'> +4.9808399e+02 </wgt>
<wgt id='47'> +5.0024806e+02 </wgt>
<wgt id='48'> +4.8575766e+02 </wgt>
<wgt id='49'> +4.5945845e+02 </wgt>
<wgt id='50'> +5.8953612e+02 </wgt>
<wgt id='51'> +4.6145159e+02 </wgt>
<wgt id='52'> +4.6889441e+02 </wgt>
<wgt id='53'> +4.7618708e+02 </wgt>
<wgt id='54'> +5.0082767e+02 </wgt>
<wgt id='55'> +4.8702795e+02 </wgt>
<wgt id='56'> +4.4176369e+02 </wgt>
<wgt id='57'> +4.9627902e+02 </wgt>
<wgt id='58'> +4.5028253e+02 </wgt>
<wgt id='59'> +5.1445917e+02 </wgt>
<wgt id='60'> +4.8173036e+02 </wgt>
<wgt id='61'> +4.2262254e+02 </wgt>
<wgt id='62'> +4.6056300e+02 </wgt>
<wgt id='63'> +4.9398285e+02 </wgt>
<wgt id='64'> +4.7377764e+02 </wgt>
<wgt id='65'> +5.0158539e+02 </wgt>
<wgt id='66'> +4.7966723e+02 </wgt>
<wgt id='67'> +4.8396002e+02 </wgt>
<wgt id='68'> +5.5829094e+02 </wgt>
<wgt id='69'> +5.0398146e+02 </wgt>
<wgt id='70'> +4.8984126e+02 </wgt>
<wgt id='71'> +4.7061236e+02 </wgt>
<wgt id='72'> +4.4609703e+02 </wgt>
<wgt id='73'> +4.4824931e+02 </wgt>
<wgt id='74'> +5.3179520e+02 </wgt>
<wgt id='75'> +5.0584627e+02 </wgt>
<wgt id='76'> +4.8315320e+02 </wgt>
<wgt id='77'> +4.6694398e+02 </wgt>
<wgt id='78'> +4.3617178e+02 </wgt>
<wgt id='79'> +4.9291196e+02 </wgt>
<wgt id='80'> +4.4879953e+02 </wgt>
<wgt id='81'> +4.8013655e+02 </wgt>
<wgt id='82'> +4.6689954e+02 </wgt>
<wgt id='83'> +4.8516565e+02 </wgt>
<wgt id='84'> +5.0291233e+02 </wgt>
<wgt id='85'> +4.6718345e+02 </wgt>
<wgt id='86'> +4.9540884e+02 </wgt>
<wgt id='87'> +4.8242966e+02 </wgt>
<wgt id='88'> +4.7970138e+02 </wgt>
<wgt id='89'> +4.5703920e+02 </wgt>
<wgt id='90'> +4.7503941e+02 </wgt>
<wgt id='91'> +4.6155489e+02 </wgt>
<wgt id='92'> +4.3434862e+02 </wgt>
<wgt id='93'> +4.8380255e+02 </wgt>
<wgt id='94'> +4.5216352e+02 </wgt>
<wgt id='95'> +4.8829225e+02 </wgt>
<wgt id='96'> +5.1712395e+02 </wgt>
<wgt id='97'> +4.5699393e+02 </wgt>
<wgt id='98'> +4.9054027e+02 </wgt>
<wgt id='99'> +4.3039697e+02 </wgt>
<wgt id='100'> +4.0501938e+02 </wgt>
<wgt id='101'> +5.5549920e+02 </wgt>
<wgt id='102'> +5.2376077e+02 </wgt>
<wgt id='103'> +4.9799166e+02 </wgt>
<wgt id='104'> +5.0256101e+02 </wgt>
<wgt id='105'> +4.9324692e+02 </wgt>
<wgt id='106'> +4.4252048e+02 </wgt>
<wgt id='107'> +4.5238888e+02 </wgt>
<wgt id='108'> +4.2800108e+02 </wgt>
<wgt id='109'> +4.5914211e+02 </wgt>
<wgt id='110'> +4.6025580e+02 </wgt>
<wgt id='111'> +4.6697272e+02 </wgt>
<wgt id='112'> +4.7287600e+02 </wgt>
<wgt id='113'> +4.6481369e+02 </wgt>
<wgt id='114'> +4.7923886e+02 </wgt>
<wgt id='115'> +4.4639912e+02 </wgt>
<wgt id='116'> +5.1901566e+02 </wgt>
<wgt id='117'> +4.7221951e+02 </wgt>
<wgt id='118'> +5.0853338e+02 </wgt>
<wgt id='119'> +4.9145852e+02 </wgt>
<wgt id='120'> +4.7705700e+02 </wgt>
<wgt id='121'> +4.7260925e+02 </wgt>
<wgt id='122'> +4.7356567e+02 </wgt>
<wgt id='123'> +4.7771307e+02 </wgt>
<wgt id='124'> +5.4784162e+02 </wgt>
<wgt id='125'> +5.7403418e+02 </wgt>
<wgt id='126'> +4.8873173e+02 </wgt>
<wgt id='127'> +4.8225818e+02 </wgt>
<wgt id='128'> +4.4512840e+02 </wgt>
<wgt id='129'> +5.2328160e+02 </wgt>
<wgt id='130'> +4.7169679e+02 </wgt>
<wgt id='131'> +4.7634856e+02 </wgt>
<wgt id='132'> +5.1947667e+02 </wgt>
<wgt id='133'> +5.1316612e+02 </wgt>
<wgt id='134'> +4.8380020e+02 </wgt>
<wgt id='135'> +4.7574631e+02 </wgt>
<wgt id='136'> +5.3175542e+02 </wgt>
<wgt id='137'> +4.8000778e+02 </wgt>
<wgt id='138'> +4.7609090e+02 </wgt>
<wgt id='139'> +4.9807086e+02 </wgt>
<wgt id='140'> +4.8195416e+02 </wgt>
<wgt id='141'> +5.1513443e+02 </wgt>
<wgt id='142'> +3.9980416e+02 </wgt>
<wgt id='143'> +4.9397291e+02 </wgt>
<wgt id='144'> +4.5221331e+02 </wgt>
<wgt id='145'> +4.6241250e+02 </wgt>
</rwgt>
</event>
<event>
 8      1 +4.8159400e+02 1.97704400e+02 7.54677100e-03 1.15223900e-01
       21 -1    0    0  501  502 +0.0000000000e+00 +0.0000000000e+00 +5.1914535663e+02 5.1914535663e+02 0.0000000000e+00 0.0000e+00 1.0000e+00
       21 -1    0    0  502  503 -0.0000000000e+00 -0.0000000000e+00 -1.0086937228e+02 1.0086937228e+02 0.0000000000e+00 0.0000e+00 -1.0000e+00
       -6  2    1    2    0  503 -8.9444532393e+01 +2.2993266979e+01 +5.1109482224e+01 2.0420382032e+02 1.7480848480e+02 0.0000e+00 0.0000e+00
        6  2    1    2  501    0 +8.9444532393e+01 -2.2993266979e+01 +3.6716650212e+02 4.1581090858e+02 1.7192573023e+02 0.0000e+00 0.0000e+00
        5  1    4    4  501    0 +7.7819442118e+01 -3.2311178909e+01 +2.9467519577e+02 3.0652151450e+02 4.7000000000e+00 0.0000e+00 -1.0000e+00
       24  1    4    4    0    0 +1.1625090275e+01 +9.3179119307e+00 +7.2491306359e+01 1.0928939408e+02 8.0419002446e+01 0.0000e+00 0.0000e+00
       -5  1    3    3    0  503 -5.0772936100e+01 -4.9823445536e+01 +5.3294603930e+01 8.9009390366e+01 4.7000000000e+00 0.0000e+00 1.0000e+00
      -24  1    3    3    0    0 -3.8671596293e+01 +7.2816712515e+01 -2.1851217060e+00 1.1519442995e+02 8.0419002446e+01 0.0000e+00 0.0000e+00
<mgrwt>
<rscale>  2 0.19706522E+03</rscale>
<asrwt>0</asrwt>
<pdfrwt beam="1">  1       21 0.79868515E-01 0.19770438E+03</pdfrwt>
<pdfrwt beam="2">  1       21 0.15518365E-01 0.19770438E+03</pdfrwt>
<totfact> 0.50773498E+04</totfact>
</mgrwt>
<rwgt>
<wgt id='1'> +6.2265428e+02 </wgt>
<wgt id='2'> +5.3681786e+02 </wgt>
<wgt id='3'> +5.0145935e+02 </wgt>
<wgt id='4'> +6.4996139e+02 </wgt>
<wgt id='5'> +4.5674599e+02 </wgt>
<wgt id='6'> +5.9030448e+02 </wgt>
<wgt id='7'> +5.0294559e+02 </wgt>
<wgt id='8'> +4.6801087e+02 </wgt>
<wgt id='9'> +6.1791487e+02 </wgt>
<wgt id='10'> +4.2586369e+02 </wgt>
<wgt id='11'> +5.5037985e+02 </wgt>
<wgt id='12'> +4.6893360e+02 </wgt>
<wgt id='13'> +4.3638953e+02 </wgt>
<wgt id='14'> +5.7669854e+02 </wgt>
<wgt id='15'> +3.9716517e+02 </wgt>
<wgt id='16'> +5.0798626e+02 </wgt>
<wgt id='17'> +4.4722296e+02 </wgt>
<wgt id='18'> +4.2104525e+02 </wgt>
<wgt id='19'> +5.2746621e+02 </wgt>
<wgt id='20'> +3.8593099e+02 </wgt>
<wgt id='21'> +4.1900397e+02 </wgt>
<wgt id='22'> +3.9296058e+02 </wgt>
<wgt id='23'> +5.0145935e+02 </wgt>
<wgt id='24'> +3.5983677e+02 </wgt>
<wgt id='25'> +4.4902188e+02 </wgt>
<wgt id='26'> +3.9066859e+02 </wgt>
<wgt id='27'> +3.6641004e+02 </wgt>
<wgt id='28'> +4.6801087e+02 </wgt>
<wgt id='29'> +3.3558773e+02 </wgt>
<wgt id='30'> +4.2793139e+02 </wgt>
<wgt id='31'> +3.7973618e+02 </wgt>
<wgt id='32'> +3.5877019e+02 </wgt>
<wgt id='33'> +4.4288165e+02 </wgt>
<wgt id='34'> +3.3039004e+02 </wgt>
<wgt id='35'> +4.0569836e+02 </wgt>
<wgt id='36'> +3.5577549e+02 </wgt>
<wgt id='37'> +3.3483940e+02 </wgt>
<wgt id='38'> +4.2104525e+02 </wgt>
<wgt id='39'> +3.0805115e+02 </wgt>
<wgt id='40'> +3.7825937e+02 </wgt>
<wgt id='41'> +3.3171597e+02 </wgt>
<wgt id='42'> +3.1221584e+02 </wgt>
<wgt id='43'> +3.9296058e+02 </wgt>
<wgt id='44'> +2.8729189e+02 </wgt>
<wgt id='45'> +4.8159400e+02 </wgt>
<wgt id='46'> +4.8755217e+02 </wgt>
<wgt id='47'> +4.9740719e+02 </wgt>
<wgt id='48'> +4.8462208e+02 </wgt>
<wgt id='49'> +4.7707779e+02 </wgt>
<wgt id='50'> +5.6783937e+02 </wgt>
<wgt id='51'> +4.7111734e+02 </wgt>
<wgt id='52'> +4.8042539e+02 </wgt>
<wgt id='53'> +4.8034840e+02 </wgt>
<wgt id='54'> +4.8677803e+02 </wgt>
<wgt id='55'> +4.4476982e+02 </wgt>
<wgt id='56'> +4.4332667e+02 </wgt>
<wgt id='57'> +4.7698277e+02 </wgt>
<wgt id='58'> +4.7771581e+02 </wgt>
<wgt id='59'> +4.8876064e+02 </wgt>
<wgt id='60'> +4.7307554e+02 </wgt>
<wgt id='61'> +4.4050781e+02 </wgt>
<wgt id='62'> +4.7395601e+02 </wgt>
<wgt id='63'> +4.8272597e+02 </wgt>
<wgt id='64'> +4.7390839e+02 </wgt>
<wgt id='65'> +5.4883735e+02 </wgt>
<wgt id='66'> +4.7192536e+02 </wgt>
<wgt id='67'> +4.8511878e+02 </wgt>
<wgt id='68'> +5.2446496e+02 </wgt>
<wgt id='69'> +4.7600188e+02 </wgt>
<wgt id='70'> +4.7463422e+02 </wgt>
<wgt id='71'> +4.8852467e+02 </wgt>
<wgt id='72'> +4.6560196e+02 </wgt>
<wgt id='73'> +4.7069778e+02 </wgt>
<wgt id='74'> +5.0329515e+02 </wgt>
<wgt id='75'> +4.9238851e+02 </wgt>
<wgt id='76'> +4.7211251e+02 </wgt>
<wgt id='77'> +4.6905471e+02 </wgt>
<wgt id='78'> +4.6989132e+02 </wgt>
<wgt id='79'> +4.7006655e+02 </wgt>
<wgt id='80'> +4.7230871e+02 </wgt>
<wgt id='81'> +4.7268977e+02 </wgt>
<wgt id='82'> +4.8324197e+02 </wgt>
<wgt id='83'> +4.8915427e+02 </wgt>
<wgt id='84'> +5.2192013e+02 </wgt>
<wgt id='85'> +4.9750772e+02 </wgt>
<wgt id='86'> +4.8152794e+02 </wgt>
<wgt id='87'> +4.8358679e+02 </wgt>
<wgt id='88'> +4.8612052e+02 </wgt>
<wgt id='89'> +4.9039766e+02 </wgt>
<wgt id='90'> +4.8960649e+02 </wgt>
<wgt id='91'> +5.0158918e+02 </wgt>
<wgt id='92'> +4.4195459e+02 </wgt>
<wgt id='93'> +4.7683050e+02 </wgt>
<wgt id='94'> +4.7337585e+02 </wgt>
<wgt id='95'> +4.6957512e+02 </wgt>
<wgt id='96'> +5.1748123e+02 </wgt>
<wgt id='97'> +4.8190413e+02 </wgt>
<wgt id='98'> +4.6597197e+02 </wgt>
<wgt id='99'> +4.6186167e+02 </wgt>
<wgt id='100'> +4.6206145e+02 </wgt>
<wgt id='101'> +5.2005229e+02 </wgt>
<wgt id='102'> +4.8313527e+02 </wgt>
<wgt id='103'> +5.2033317e+02 </wgt>
<wgt id='104'> +4.8351785e+02 </wgt>
<wgt id='105'> +4.9851023e+02 </wgt>
<wgt id='106'> +4.4149325e+02 </wgt>
<wgt id='107'> +4.6641770e+02 </wgt>
<wgt id='108'> +4.2821314e+02 </wgt>
<wgt id='109'> +4.5318522e+02 </wgt>
<wgt id='110'> +4.7968879e+02 </wgt>
<wgt id='111'> +4.6877198e+02 </wgt>
<wgt id='112'> +4.5731059e+02 </wgt>
<wgt id='113'> +4.4497901e+02 </wgt>
<wgt id='114'> +4.7491012e+02 </wgt>
<wgt id='115'> +4.6708675e+02 </wgt>
<wgt id='116'> +4.9056992e+02 </wgt>
<wgt id='117'> +4.8104287e+02 </wgt>
<wgt id='118'> +4.9994907e+02 </wgt>
<wgt id='119'> +4.6708162e+02 </wgt>
<wgt id='120'> +4.7296778e+02 </wgt>
<wgt id='121'> +4.7074535e+02 </wgt>
<wgt id='122'> +4.7622264e+02 </wgt>
<wgt id='123'> +4.8583471e+02 </wgt>
<wgt id='124'> +5.2418559e+02 </wgt>
<wgt id='125'> +5.2722997e+02 </wgt>
<wgt id='126'> +4.9777194e+02 </wgt>
<wgt id='127'> +4.9482365e+02 </wgt>
<wgt id='128'> +4.4173123e+02 </wgt>
<wgt id='129'> +5.4159720e+02 </wgt>
<wgt id='130'> +4.7970420e+02 </wgt>
<wgt id='131'> +5.0750400e+02 </wgt>
<wgt id='132'> +4.9310993e+02 </wgt>
<wgt id='133'> +4.8756707e+02 </wgt>
<wgt id='134'> +4.6204359e+02 </wgt>
<wgt id='135'> +4.9069068e+02 </wgt>
<wgt id='136'> +4.8159057e+02 </wgt>
<wgt id='137'> +4.5819927e+02 </wgt>
<wgt id='138'> +4.4612679e+02 </wgt>
<wgt id='139'> +4.9386129e+02 </wgt>
<wgt id='140'> +5.0246509e+02 </wgt>
<wgt id='141'> +4.8537563e+02 </wgt>
<wgt id='142'> +4.6609176e+02 </wgt>
<wgt id='143'> +4.8554394e+02 </wgt>
<wgt id='144'> +4.7621704e+02 </wgt>
<wgt id='145'> +4.8063967e+02 </wgt>
</rwgt>
</event>
<event>
 8      1 +4.8159400e+02 1.84056700e+02 7.54677100e-03 1.16654700e-01
       21 -1    0    0  501  502 +0.0000000000e+00 +0.0000000000e+00 +8.3400117869e+02 8.3400117869e+02 0.0000000000e+00 0.0000e+00 1.0000e+00
       21 -1    0    0  502  503 -0.0000000000e+00 -0.0000000000e+00 -4.1246013274e+01 4.1246013274e+01 0.0000000000e+00 0.0000e+00 -1.0000e+00
       -6  2    1    2    0  503 -1.3832650190e+01 -6.2374350450e+01 +5.0262418424e+02 5.3165897561e+02 1.6108474155e+02 0.0000e+00 0.0000e+00
        6  2    1    2  501    0 +1.3832650190e+01 +6.2374350450e+01 +2.9013098118e+02 3.4358821636e+02 1.7261220807e+02 0.0000e+00 0.0000e+00
        5  1    4    4  501    0 -4.6243263999e+01 +8.9773327359e+00 +2.1713491112e+01 5.2082604241e+01 4.7000000000e+00 0.0000e+00 -1.0000e+00
       24  1    4    4    0    0 +6.0075914188e+01 +5.3397017714e+01 +2.6841749007e+02 2.9150561212e+02 8.0419002446e+01 0.0000e+00 0.0000e+00
       -5  1    3    3    0  503 -5.5123028846e+01 +2.9201833677e+00 +1.0532460643e+02 1.1900604397e+02 4.7000000000e+00 0.0000e+00 1.0000e+00
      -24  1    3    3    0    0 +4.1290378656e+01 -6.5294533818e+01 +3.9729957781e+02 4.1265293164e+02 8.0419002446e+01 0.0000e+00 1.0000e+00
<mgrwt>
<rscale>  2 0.18130448E+03</rscale>
<asrwt>0</asrwt>
<pdfrwt beam="1">  1       21 0.12830786E+00 0.18405672E+03</pdfrwt>
<pdfrwt beam="2">  1       21 0.63455411E-02 0.18405672E+03</pdfrwt>
<totfact> 0.80350390E+04</totfact>
</mgrwt>
<rwgt>
<wgt id='1'> +6.2280759e+02 </wgt>
<wgt id='2'> +5.4067125e+02 </wgt>
<wgt id='3'> +5.0004746e+02 </wgt>
<wgt id='4'> +6.4790891e+02 </wgt>
<wgt id='5'> +4.7832228e+02 </wgt>
<wgt id='6'> +5.9262647e+02 </wgt>
<wgt id='7'> +5.0871116e+02 </wgt>
<wgt id='8'> +4.6769831e+02 </wgt>
<wgt id='9'> +6.1809686e+02 </wgt>
<wgt id='10'> +4.4657622e+02 </wgt>
<wgt id='11'> +5.5333843e+02 </wgt>
<wgt id='12'> +4.7457811e+02 </wgt>
<wgt id='13'> +4.3626143e+02 </wgt>
<wgt id='14'> +5.7811084e+02 </wgt>
<wgt id='15'> +4.1654844e+02 </wgt>
<wgt id='16'> +5.0612049e+02 </wgt>
<wgt id='17'> +4.4813593e+02 </wgt>
<wgt id='18'> +4.1875832e+02 </wgt>
<wgt id='19'> +5.2416575e+02 </wgt>
<wgt id='20'> +4.0225937e+02 </wgt>
<wgt id='21'> +4.2164578e+02 </wgt>
<wgt id='22'> +3.9166794e+02 </wgt>
<wgt id='23'> +5.0004746e+02 </wgt>
<wgt id='24'> +3.7556158e+02 </wgt>
<wgt id='25'> +4.4966683e+02 </wgt>
<wgt id='26'> +3.9335456e+02 </wgt>
<wgt id='27'> +3.6534153e+02 </wgt>
<wgt id='28'> +4.6769831e+02 </wgt>
<wgt id='29'> +3.5030882e+02 </wgt>
<wgt id='30'> +4.2534129e+02 </wgt>
<wgt id='31'> +3.7976927e+02 </wgt>
<wgt id='32'> +3.5633682e+02 </wgt>
<wgt id='33'> +4.3895587e+02 </wgt>
<wgt id='34'> +3.4308011e+02 </wgt>
<wgt id='35'> +4.0472934e+02 </wgt>
<wgt id='36'> +3.5732040e+02 </wgt>
<wgt id='37'> +3.3328462e+02 </wgt>
<wgt id='38'> +4.1875832e+02 </wgt>
<wgt id='39'> +3.2031002e+02 </wgt>
<wgt id='40'> +3.7789790e+02 </wgt>
<wgt id='41'> +3.3334523e+02 </wgt>
<wgt id='42'> +3.1088251e+02 </wgt>
<wgt id='43'> +3.9166794e+02 </wgt>
<wgt id='44'> +2.9877238e+02 </wgt>
<wgt id='45'> +4.8159400e+02 </wgt>
<wgt id='46'> +4.9337313e+02 </wgt>
<wgt id='47'> +4.9128935e+02 </wgt>
<wgt id='48'> +4.8256601e+02 </wgt>
<wgt id='49'> +4.6666121e+02 </wgt>
<wgt id='50'> +5.6094622e+02 </wgt>
<wgt id='51'> +4.6577143e+02 </wgt>
<wgt id='52'> +4.7617570e+02 </wgt>
<wgt id='53'> +4.7361877e+02 </wgt>
<wgt id='54'> +4.9594769e+02 </wgt>
<wgt id='55'> +4.8406433e+02 </wgt>
<wgt id='56'> +4.4695679e+02 </wgt>
<wgt id='57'> +4.9509469e+02 </wgt>
<wgt id='58'> +4.6407346e+02 </wgt>
<wgt id='59'> +5.1077872e+02 </wgt>
<wgt id='60'> +4.8803364e+02 </wgt>
<wgt id='61'> +4.1999179e+02 </wgt>
<wgt id='62'> +4.6598364e+02 </wgt>
<wgt id='63'> +4.8983925e+02 </wgt>
<wgt id='64'> +4.7714266e+02 </wgt>
<wgt id='65'> +4.9927368e+02 </wgt>
<wgt id='66'> +4.7653076e+02 </wgt>
<wgt id='67'> +4.8333818e+02 </wgt>
<wgt id='68'> +5.3934553e+02 </wgt>
<wgt id='69'> +4.8669623e+02 </wgt>
<wgt id='70'> +4.8414488e+02 </wgt>
<wgt id='71'> +4.7665584e+02 </wgt>
<wgt id='72'> +4.6477264e+02 </wgt>
<wgt id='73'> +4.5955192e+02 </wgt>
<wgt id='74'> +5.1718793e+02 </wgt>
<wgt id='75'> +4.9573025e+02 </wgt>
<wgt id='76'> +4.8356206e+02 </wgt>
<wgt id='77'> +4.7193485e+02 </wgt>
<wgt id='78'> +4.4775790e+02 </wgt>
<wgt id='79'> +4.8784756e+02 </wgt>
<wgt id='80'> +4.5880130e+02 </wgt>
<wgt id='81'> +4.7883846e+02 </wgt>
<wgt id='82'> +4.6665558e+02 </wgt>
<wgt id='83'> +4.7956058e+02 </wgt>
<wgt id='84'> +4.9825933e+02 </wgt>
<wgt id='85'> +4.7336120e+02 </wgt>
<wgt id='86'> +4.8740595e+02 </wgt>
<wgt id='87'> +4.8363458e+02 </wgt>
<wgt id='88'> +4.7524730e+02 </wgt>
<wgt id='89'> +4.7055207e+02 </wgt>
<wgt id='90'> +4.8357766e+02 </wgt>
<wgt id='91'> +4.7177803e+02 </wgt>
<wgt id='92'> +4.4845319e+02 </wgt>
<wgt id='93'> +4.8177899e+02 </wgt>
<wgt id='94'> +4.6146315e+02 </wgt>
<wgt id='95'> +4.8964654e+02 </wgt>
<wgt id='96'> +5.0480193e+02 </wgt>
<wgt id='97'> +4.6528060e+02 </wgt>
<wgt id='98'> +4.8290307e+02 </wgt>
<wgt id='99'> +4.4557609e+02 </wgt>
<wgt id='100'> +4.2926709e+02 </wgt>
<wgt id='101'> +5.3870380e+02 </wgt>
<wgt id='102'> +5.0915132e+02 </wgt>
<wgt id='103'> +5.0106710e+02 </wgt>
<wgt id='104'> +4.9065220e+02 </wgt>
<wgt id='105'> +4.9659047e+02 </wgt>
<wgt id='106'> +4.5128542e+02 </wgt>
<wgt id='107'> +4.5999818e+02 </wgt>
<wgt id='108'> +4.3608613e+02 </wgt>
<wgt id='109'> +4.6458972e+02 </wgt>
<wgt id='110'> +4.7110195e+02 </wgt>
<wgt id='111'> +4.7078793e+02 </wgt>
<wgt id='112'> +4.7013659e+02 </wgt>
<wgt id='113'> +4.6388767e+02 </wgt>
<wgt id='114'> +4.8056586e+02 </wgt>
<wgt id='115'> +4.4867528e+02 </wgt>
<wgt id='116'> +5.0484023e+02 </wgt>
<wgt id='117'> +4.7186845e+02 </wgt>
<wgt id='118'> +5.0277034e+02 </wgt>
<wgt id='119'> +4.8752551e+02 </wgt>
<wgt id='120'> +4.7390954e+02 </wgt>
<wgt id='121'> +4.7948044e+02 </wgt>
<wgt id='122'> +4.7683349e+02 </wgt>
<wgt id='123'> +4.7699053e+02 </wgt>
<wgt id='124'> +5.3392331e+02 </wgt>
<wgt id='125'> +5.5040867e+02 </wgt>
<wgt id='126'> +4.8753476e+02 </wgt>
<wgt id='127'> +4.8476045e+02 </wgt>
<wgt id='128'> +4.4326335e+02 </wgt>
<wgt id='129'> +5.2278548e+02 </wgt>
<wgt id='130'> +4.6695878e+02 </wgt>
<wgt id='131'> +4.8372316e+02 </wgt>
<wgt id='132'> +5.1782860e+02 </wgt>
<wgt id='133'> +5.0367235e+02 </wgt>
<wgt id='134'> +4.8215501e+02 </wgt>
<wgt id='135'> +4.8009184e+02 </wgt>
<wgt id='136'> +5.2291920e+02 </wgt>
<wgt id='137'> +4.7059720e+02 </wgt>
<wgt id='138'> +4.6221268e+02 </wgt>
<wgt id='139'> +4.9644612e+02 </wgt>
<wgt id='140'> +4.8513591e+02 </wgt>
<wgt id='141'> +5.0088170e+02 </wgt>
<wgt id='142'> +4.2641835e+02 </wgt>
<wgt id='143'> +4.9568404e+02 </wgt>
<wgt id='144'> +4.6470013e+02 </wgt>
<wgt id='145'> +4.6779802e+02 </wgt>
</rwgt>
</event>
<event>
 8      1 +4.8159400e+02 2.11993500e+02 7.54677100e-03 1.14043800e-01
       21 -1    0    0  503  502 +0.0000000000e+00 +0.0000000000e+00 +1.5194322377e+03 1.5194322377e+03 0.0000000000e+00 0.0000e+00 -1.0000e+00
       21 -1    0    0  501  503 -0.0000000000e+00 -0.0000000000e+00 -4.3242896845e+01 4.3242896845e+01 0.0000000000e+00 0.0000e+00 1.0000e+00
        6  2    1    2  501    0 -1.0317054985e+02 +6.5392396450e+01 +2.9123028568e+02 3.5890222283e+02 1.7051509723e+02 0.0000e+00 0.0000e+00
       -6  2    1    2    0  502 +1.0317054985e+02 -6.5392396450e+01 +1.1849590551e+03 1.2037729117e+03 1.7326549764e+02 0.0000e+00 0.0000e+00
        5  1    3    3  501    0 -3.7635209332e+01 -3.1880081228e+01 +1.5204196114e+02 1.5991121446e+02 4.7000000000e+00 0.0000e+00 -1.0000e+00
       24  1    3    3    0    0 -6.5535340522e+01 +9.7272477677e+01 +1.3918832454e+02 1.9899100837e+02 8.0419002446e+01 0.0000e+00 0.0000e+00
       -5  1    4    4    0  502 +8.7951335407e+01 -5.7009250939e+01 +3.6747107233e+02 3.8215516625e+02 4.7000000000e+00 0.0000e+00 1.0000e+00
      -24  1    4    4    0    0 +1.5219214447e+01 -8.3831455104e+00 +8.1748798280e+02 8.2161774542e+02 8.0419002446e+01 0.0000e+00 0.0000e+00
<mgrwt>
<rscale>  2 0.21143081E+03</rscale>
<asrwt>0</asrwt>
<pdfrwt beam="1">  1       21 0.23375876E+00 0.21199354E+03</pdfrwt>
<pdfrwt beam="2">  1       21 0.66527545E-02 0.21199354E+03</pdfrwt>
<totfact> 0.13483938E+04</totfact>
</mgrwt>
<rwgt>
<wgt id='1'> +6.5641530e+02 </wgt>
<wgt id='2'> +5.6026842e+02 </wgt>
<wgt id='3'> +5.0529490e+02 </wgt>
<wgt id='4'> +6.9109105e+02 </wgt>
<wgt id='5'> +4.4373420e+02 </wgt>
<wgt id='6'> +5.8802564e+02 </wgt>
<wgt id='7'> +4.9802312e+02 </wgt>
<wgt id='8'> +4.4814415e+02 </wgt>
<wgt id='9'> +6.2054862e+02 </wgt>
<wgt id='10'> +3.9424004e+02 </wgt>
<wgt id='11'> +5.2173430e+02 </wgt>
<wgt id='12'> +4.4292875e+02 </wgt>
<wgt id='13'> +3.9919448e+02 </wgt>
<wgt id='14'> +5.5036224e+02 </wgt>
<wgt id='15'> +3.5191367e+02 </wgt>
<wgt id='16'> +5.3760524e+02 </wgt>
<wgt id='17'> +4.6732405e+02 </wgt>
<wgt id='18'> +4.2520879e+02 </wgt>
<wgt id='19'> +5.6273558e+02 </wgt>
<wgt id='20'> +3.7579330e+02 </wgt>
<wgt id='21'> +4.1540478e+02 </wgt>
<wgt id='22'> +3.7711608e+02 </wgt>
<wgt id='23'> +5.0529490e+02 </wgt>
<wgt id='24'> +3.3387728e+02 </wgt>
<wgt id='25'> +4.2730128e+02 </wgt>
<wgt id='26'> +3.6945015e+02 </wgt>
<wgt id='27'> +3.3592463e+02 </wgt>
<wgt id='28'> +4.4814415e+02 </wgt>
<wgt id='29'> +2.9803157e+02 </wgt>
<wgt id='30'> +4.5357510e+02 </wgt>
<wgt id='31'> +3.9698845e+02 </wgt>
<wgt id='32'> +3.6279408e+02 </wgt>
<wgt id='33'> +4.7354547e+02 </wgt>
<wgt id='34'> +3.2234171e+02 </wgt>
<wgt id='35'> +4.0631867e+02 </wgt>
<wgt id='36'> +3.5288340e+02 </wgt>
<wgt id='37'> +3.2176071e+02 </wgt>
<wgt id='38'> +4.2520879e+02 </wgt>
<wgt id='39'> +2.8638769e+02 </wgt>
<wgt id='40'> +3.6051214e+02 </wgt>
<wgt id='41'> +3.1384527e+02 </wgt>
<wgt id='42'> +2.8661559e+02 </wgt>
<wgt id='43'> +3.7711608e+02 </wgt>
<wgt id='44'> +2.5564055e+02 </wgt>
<wgt id='45'> +4.8159400e+02 </wgt>
<wgt id='46'> +4.9197547e+02 </wgt>
<wgt id='47'> +5.1504327e+02 </wgt>
<wgt id='48'> +4.8016577e+02 </wgt>
<wgt id='49'> +4.3386322e+02 </wgt>
<wgt id='50'> +5.6389185e+02 </wgt>
<wgt id='51'> +4.4970169e+02 </wgt>
<wgt id='52'> +4.2946856e+02 </wgt>
<wgt id='53'> +4.9754990e+02 </wgt>
<wgt id='54'> +5.1519787e+02 </wgt>
<wgt id='55'> +5.6581982e+02 </wgt>
<wgt id='56'> +4.6779974e+02 </wgt>
<wgt id='57'> +5.1656416e+02 </wgt>
<wgt id='58'> +4.2418817e+02 </wgt>
<wgt id='59'> +5.2262081e+02 </wgt>
<wgt id='60'> +4.7263949e+02 </wgt>
<wgt id='61'> +3.9980937e+02 </wgt>
<wgt id='62'> +4.3062242e+02 </wgt>
<wgt id='63'> +5.1377716e+02 </wgt>
<wgt id='64'> +4.8400951e+02 </wgt>
<wgt id='65'> +4.1279212e+02 </wgt>
<wgt id='66'> +4.9411959e+02 </wgt>
<wgt id='67'> +4.8511346e+02 </wgt>
<wgt id='68'> +6.2023984e+02 </wgt>
<wgt id='69'> +5.4267157e+02 </wgt>
<wgt id='70'> +5.5181247e+02 </wgt>
<wgt id='71'> +4.3251349e+02 </wgt>
<wgt id='72'> +4.2463642e+02 </wgt>
<wgt id='73'> +4.2828646e+02 </wgt>
<wgt id='74'> +5.7867084e+02 </wgt>
<wgt id='75'> +5.5081790e+02 </wgt>
<wgt id='76'> +4.9716127e+02 </wgt>
<wgt id='77'> +4.4056246e+02 </wgt>
<wgt id='78'> +4.0254155e+02 </wgt>
<wgt id='79'> +5.3180341e+02 </wgt>
<wgt id='80'> +4.0845927e+02 </wgt>
<wgt id='81'> +5.1387354e+02 </wgt>
<wgt id='82'> +4.7967727e+02 </wgt>
<wgt id='83'> +4.7615640e+02 </wgt>
<wgt id='84'> +4.5532735e+02 </wgt>
<wgt id='85'> +4.1860942e+02 </wgt>
<wgt id='86'> +5.1865068e+02 </wgt>
<wgt id='87'> +4.6706983e+02 </wgt>
<wgt id='88'> +4.7679420e+02 </wgt>
<wgt id='89'> +3.7164837e+02 </wgt>
<wgt id='90'> +4.2578945e+02 </wgt>
<wgt id='91'> +3.9543455e+02 </wgt>
<wgt id='92'> +4.5463129e+02 </wgt>
<wgt id='93'> +4.9154105e+02 </wgt>
<wgt id='94'> +4.3486841e+02 </wgt>
<wgt id='95'> +5.0644407e+02 </wgt>
<wgt id='96'> +5.0375852e+02 </wgt>
<wgt id='97'> +4.2286724e+02 </wgt>
<wgt id='98'> +5.4296419e+02 </wgt>
<wgt id='99'> +3.8538040e+02 </wgt>
<wgt id='100'> +3.4268353e+02 </wgt>
<wgt id='101'> +5.6785452e+02 </wgt>
<wgt id='102'> +5.5195885e+02 </wgt>
<wgt id='103'> +4.3747971e+02 </wgt>
<wgt id='104'> +5.2871924e+02 </wgt>
<wgt id='105'> +4.9176718e+02 </wgt>
<wgt id='106'> +4.7962899e+02 </wgt>
<wgt id='107'> +4.7860406e+02 </wgt>
<wgt id='108'> +4.5527099e+02 </wgt>
<wgt id='109'> +4.7984637e+02 </wgt>
<wgt id='110'> +4.2398860e+02 </wgt>
<wgt id='111'> +4.6275917e+02 </wgt>
<wgt id='112'> +5.0920213e+02 </wgt>
<wgt id='113'> +5.3682069e+02 </wgt>
<wgt id='114'> +5.0105614e+02 </wgt>
<wgt id='115'> +4.4605489e+02 </wgt>
<wgt id='116'> +5.3836610e+02 </wgt>
<wgt id='117'> +4.7739232e+02 </wgt>
<wgt id='118'> +4.8747534e+02 </wgt>
<wgt id='119'> +5.4201888e+02 </wgt>
<wgt id='120'> +4.8106882e+02 </wgt>
<wgt id='121'> +4.6189971e+02 </wgt>
<wgt id='122'> +4.6539153e+02 </wgt>
<wgt id='123'> +4.4654100e+02 </wgt>
<wgt id='124'> +5.4148133e+02 </wgt>
<wgt id='125'> +6.3621795e+02 </wgt>
<wgt id='126'> +4.6382619e+02 </wgt>
<wgt id='127'> +4.4724824e+02 </wgt>
<wgt id='128'> +4.7598902e+02 </wgt>
<wgt id='129'> +4.7462046e+02 </wgt>
<wgt id='130'> +4.9386616e+02 </wgt>
<wgt id='131'> +4.2551199e+02 </wgt>
<wgt id='132'> +5.2209912e+02 </wgt>
<wgt id='133'> +5.3236789e+02 </wgt>
<wgt id='134'> +5.1884368e+02 </wgt>
<wgt id='135'> +4.5280763e+02 </wgt>
<wgt id='136'> +5.8087188e+02 </wgt>
<wgt id='137'> +5.3140703e+02 </wgt>
<wgt id='138'> +5.0740861e+02 </wgt>
<wgt id='139'> +4.9708059e+02 </wgt>
<wgt id='140'> +4.6624871e+02 </wgt>
<wgt id='141'> +5.7856759e+02 </wgt>
<wgt id='142'> +2.9287364e+02 </wgt>
<wgt id='143'> +4.8955340e+02 </wgt>
<wgt id='144'> +4.2580842e+02 </wgt>
<wgt id='145'> +4.3504284e+02 </wgt>
</rwgt>
</event>
<event>
 8      1 +4.8159400e+02 2.46130300e+02 7.54677100e-03 1.11623100e-01
       21 -1    0    0  501  502 +0.0000000000e+00 +0.0000000000e+00 +1.0726137771e+03 1.0726137771e+03 0.0000000000e+00 0.0000e+00 -1.0000e+00
       21 -1    0    0  502  503 -0.0000000000e+00 -0.0000000000e+00 -9.6691737109e+01 9.6691737109e+01 0.0000000000e+00 0.0000e+00 -1.0000e+00
       -6  2    1    2    0  503 +1.6988064004e+02 +2.3589240879e+01 +1.0954267840e+02 2.6940622621e+02 1.7653394060e+02 0.0000e+00 0.0000e+00
        6  2    1    2  501    0 -1.6988064004e+02 -2.3589240879e+01 +8.6637936157e+02 8.9989928798e+02 1.7259677345e+02 0.0000e+00 0.0000e+00
        5  1    4    4  501    0 +2.1915322642e+01 -3.0474133581e+00 +2.0606488913e+02 2.0730266912e+02 4.7000000000e+00 0.0000e+00 -1.0000e+00
       24  1    4    4    0    0 -1.9179596269e+02 -2.0541827521e+01 +6.6031447244e+02 6.9259661886e+02 8.0419002446e+01 0.0000e+00 -1.0000e+00
       -5  1    3    3    0  503 +1.0721141522e+02 -1.1408737196e+01 -1.0070725031e+01 1.0838798984e+02 4.7000000000e+00 0.0000e+00 1.0000e+00
      -24  1    3    3    0    0 +6.2669224819e+01 +3.4997978076e+01 +1.1961340343e+02 1.6101823637e+02 8.0419002446e+01 0.0000e+00 -1.0000e+00
<mgrwt>
<rscale>  2 0.24542515E+03</rscale>
<asrwt>0</asrwt>
<pdfrwt beam="1">  1       21 0.16501750E+00 0.24613028E+03</pdfrwt>
<pdfrwt beam="2">  1       21 0.14875653E-01 0.24613028E+03</pdfrwt>
<totfact> 0.88703404E+03</totfact>
</mgrwt>
<rwgt>
<wgt id='1'> +6.4558184e+02 </wgt>
<wgt id='2'> +5.2045637e+02 </wgt>
<wgt id='3'> +5.0054494e+02 </wgt>
<wgt id='4'> +6.7272686e+02 </wgt>
<wgt id='5'> +4.3174558e+02 </wgt>
<wgt id='6'> +5.8331591e+02 </wgt>
<wgt id='7'> +4.6688089e+02 </wgt>
<wgt id='8'> +4.4926829e+02 </wgt>
<wgt id='9'> +6.0924203e+02 </wgt>
<wgt id='10'> +3.8822441e+02 </wgt>
<wgt id='11'> +5.2382024e+02 </wgt>
<wgt id='12'> +4.2032920e+02 </wgt>
<wgt id='13'> +4.0467475e+02 </wgt>
<wgt id='14'> +5.4683028e+02 </wgt>
<wgt id='15'> +3.5038372e+02 </wgt>
<wgt id='16'> +5.3300165e+02 </wgt>
<wgt id='17'> +4.3876714e+02 </wgt>
<wgt id='18'> +4.2275406e+02 </wgt>
<wgt id='19'> +5.5270321e+02 </wgt>
<wgt id='20'> +3.6726207e+02 </wgt>
<wgt id='21'> +3.9360071e+02 </wgt>
<wgt id='22'> +3.7944644e+02 </wgt>
<wgt id='23'> +5.0054494e+02 </wgt>
<wgt id='24'> +3.3024102e+02 </wgt>
<wgt id='25'> +4.3247352e+02 </wgt>
<wgt id='26'> +3.5435562e+02 </wgt>
<wgt id='27'> +3.4178328e+02 </wgt>
<wgt id='28'> +4.4926829e+02 </wgt>
<wgt id='29'> +2.9805204e+02 </wgt>
<wgt id='30'> +4.5100212e+02 </wgt>
<wgt id='31'> +3.7484775e+02 </wgt>
<wgt id='32'> +3.6176958e+02 </wgt>
<wgt id='33'> +4.6680629e+02 </wgt>
<wgt id='34'> +3.1621665e+02 </wgt>
<wgt id='35'> +4.0750327e+02 </wgt>
<wgt id='36'> +3.3626114e+02 </wgt>
<wgt id='37'> +3.2470931e+02 </wgt>
<wgt id='38'> +4.2275406e+02 </wgt>
<wgt id='39'> +2.8434112e+02 </wgt>
<wgt id='40'> +3.6593972e+02 </wgt>
<wgt id='41'> +3.0273326e+02 </wgt>
<wgt id='42'> +2.9247926e+02 </wgt>
<wgt id='43'> +3.7944644e+02 </wgt>
<wgt id='44'> +2.5662606e+02 </wgt>
<wgt id='45'> +4.8159400e+02 </wgt>
<wgt id='46'> +4.9649356e+02 </wgt>
<wgt id='47'> +4.9910966e+02 </wgt>
<wgt id='48'> +4.8329801e+02 </wgt>
<wgt id='49'> +4.5361910e+02 </wgt>
<wgt id='50'> +5.8011609e+02 </wgt>
<wgt id='51'> +4.5816931e+02 </wgt>
<wgt id='52'> +4.6250080e+02 </wgt>
<wgt id='53'> +4.7903758e+02 </wgt>
<wgt id='54'> +5.0502814e+02 </wgt>
<wgt id='55'> +5.0543349e+02 </wgt>
<wgt id='56'> +4.4850963e+02 </wgt>
<wgt id='57'> +5.0260445e+02 </wgt>
<wgt id='58'> +4.4550325e+02 </wgt>
<wgt id='59'> +5.1768050e+02 </wgt>
<wgt id='60'> +4.8068090e+02 </wgt>
<wgt id='61'> +4.2935573e+02 </wgt>
<wgt id='62'> +4.5431814e+02 </wgt>
<wgt id='63'> +4.9887120e+02 </wgt>
<wgt id='64'> +4.7737451e+02 </wgt>
<wgt id='65'> +4.8117711e+02 </wgt>
<wgt id='66'> +4.8209216e+02 </wgt>
<wgt id='67'> +4.8413506e+02 </wgt>
<wgt id='68'> +5.6650607e+02 </wgt>
<wgt id='69'> +5.0869921e+02 </wgt>
<wgt id='70'> +4.9932497e+02 </wgt>
<wgt id='71'> +4.6327701e+02 </wgt>
<wgt id='72'> +4.4629475e+02 </wgt>
<wgt id='73'> +4.4341134e+02 </wgt>
<wgt id='74'> +5.3800064e+02 </wgt>
<wgt id='75'> +5.1132151e+02 </wgt>
<wgt id='76'> +4.8817546e+02 </wgt>
<wgt id='77'> +4.6256075e+02 </wgt>
<wgt id='78'> +4.2912328e+02 </wgt>
<wgt id='79'> +4.9983809e+02 </wgt>
<wgt id='80'> +4.4146531e+02 </wgt>
<wgt id='81'> +4.8657583e+02 </wgt>
<wgt id='82'> +4.6806443e+02 </wgt>
<wgt id='83'> +4.8104243e+02 </wgt>
<wgt id='84'> +4.9162329e+02 </wgt>
<wgt id='85'> +4.5571973e+02 </wgt>
<wgt id='86'> +4.9816800e+02 </wgt>
<wgt id='87'> +4.7971584e+02 </wgt>
<wgt id='88'> +4.7577964e+02 </wgt>
<wgt id='89'> +4.4069508e+02 </wgt>
<wgt id='90'> +4.6621432e+02 </wgt>
<wgt id='91'> +4.4728496e+02 </wgt>
<wgt id='92'> +4.4176842e+02 </wgt>
<wgt id='93'> +4.8409076e+02 </wgt>
<wgt id='94'> +4.4879154e+02 </wgt>
<wgt id='95'> +4.9592378e+02 </wgt>
<wgt id='96'> +5.1136845e+02 </wgt>
<wgt id='97'> +4.5029004e+02 </wgt>
<wgt id='98'> +4.9968061e+02 </wgt>
<wgt id='99'> +4.2118747e+02 </wgt>
<wgt id='100'> +3.9262470e+02 </wgt>
<wgt id='101'> +5.5672105e+02 </wgt>
<wgt id='102'> +5.2910804e+02 </wgt>
<wgt id='103'> +4.8443269e+02 </wgt>
<wgt id='104'> +5.0681676e+02 </wgt>
<wgt id='105'> +4.9413989e+02 </wgt>
<wgt id='106'> +4.5229821e+02 </wgt>
<wgt id='107'> +4.5738798e+02 </wgt>
<wgt id='108'> +4.3667965e+02 </wgt>
<wgt id='109'> +4.6599372e+02 </wgt>
<wgt id='110'> +4.5439592e+02 </wgt>
<wgt id='111'> +4.6818519e+02 </wgt>
<wgt id='112'> +4.8382584e+02 </wgt>
<wgt id='113'> +4.7875451e+02 </wgt>
<wgt id='114'> +4.8800167e+02 </wgt>
<wgt id='115'> +4.4557103e+02 </wgt>
<wgt id='116'> +5.2140161e+02 </wgt>
<wgt id='117'> +4.7204250e+02 </wgt>
<wgt id='118'> +5.0361561e+02 </wgt>
<wgt id='119'> +5.0445987e+02 </wgt>
<wgt id='120'> +4.8002335e+02 </wgt>
<wgt id='121'> +4.7421934e+02 </wgt>
<wgt id='122'> +4.7301391e+02 </wgt>
<wgt id='123'> +4.7131242e+02 </wgt>
<wgt id='124'> +5.4591931e+02 </wgt>
<wgt id='125'> +5.8367630e+02 </wgt>
<wgt id='126'> +4.8186409e+02 </wgt>
<wgt id='127'> +4.7440251e+02 </wgt>
<wgt id='128'> +4.5206566e+02 </wgt>
<wgt id='129'> +5.1242874e+02 </wgt>
<wgt id='130'> +4.6825086e+02 </wgt>
<wgt id='131'> +4.6466582e+02 </wgt>
<wgt id='132'> +5.2255931e+02 </wgt>
<wgt id='133'> +5.1682747e+02 </wgt>
<wgt id='134'> +4.9151749e+02 </wgt>
<wgt id='135'> +4.7026525e+02 </wgt>
<wgt id='136'> +5.4489207e+02 </wgt>
<wgt id='137'> +4.8755149e+02 </wgt>
<wgt id='138'> +4.8068662e+02 </wgt>
<wgt id='139'> +4.9695662e+02 </wgt>
<wgt id='140'> +4.7776110e+02 </wgt>
<wgt id='141'> +5.2560262e+02 </wgt>
<wgt id='142'> +3.7922520e+02 </wgt>
<wgt id='143'> +4.9394378e+02 </wgt>
<wgt id='144'> +4.4756761e+02 </wgt>
<wgt id='145'> +4.5560959e+02 </wgt>
</rwgt>
</event>
<event>
 8      1 +4.8159400e+02 1.83971200e+02 7.54677100e-03 1.16405200e-01
       21 -1    0    0  501  502 +0.0000000000e+00 +0.0000000000e+00 +2.5514826784e+02 2.5514826784e+02 0.0000000000e+00 0.0000e+00 -1.0000e+00
       21 -1    0    0  502  503 -0.0000000000e+00 -0.0000000000e+00 -3.4532404502e+02 3.4532404502e+02 0.0000000000e+00 0.0000e+00 -1.0000e+00
       -6  2    1    2    0  503 +6.3453336493e+01 -1.0367971547e+00 -2.8076161766e+02 3.3557920801e+02 1.7250773326e+02 0.0000e+00 0.0000e+00
        6  2    1    2  501    0 -6.3453336493e+01 +1.0367971547e+00 +1.9058584049e+02 2.6489310484e+02 1.7267887404e+02 0.0000e+00 0.0000e+00
        5  1    4    4  501    0 -4.1733968167e+01 -3.2940942525e+01 -8.3925805012e-01 5.3381870962e+01 4.7000000000e+00 0.0000e+00 -1.0000e+00
       24  1    4    4    0    0 -2.1719368326e+01 +3.3977739679e+01 +1.9142509854e+02 2.1151123388e+02 8.0419002446e+01 0.0000e+00 -1.0000e+00
       -5  1    3    3    0  503 -1.3443276966e+01 -1.2168918622e+01 -1.9172934028e+02 1.9264224407e+02 4.7000000000e+00 0.0000e+00 1.0000e+00
      -24  1    3    3    0    0 +7.6896613458e+01 +1.1132121467e+01 -8.9032277378e+01 1.4293696394e+02 8.0419002446e+01 0.0000e+00 0.0000e+00
<mgrwt>
<rscale>  2 0.18393101E+03</rscale>
<asrwt>0</asrwt>
<pdfrwt beam="1">  1       21 0.39253580E-01 0.18397118E+03</pdfrwt>
<pdfrwt beam="2">  1       21 0.53126776E-01 0.18397118E+03</pdfrwt>
<totfact> 0.21103596E+04</totfact>
</mgrwt>
<rwgt>
<wgt id='1'> +6.3299615e+02 </wgt>
<wgt id='2'> +6.0093778e+02 </wgt>
<wgt id='3'> +5.3976549e+02 </wgt>
<wgt id='4'> +7.1526996e+02 </wgt>
<wgt id='5'> +4.0290687e+02 </wgt>
<wgt id='6'> +5.9223652e+02 </wgt>
<wgt id='7'> +5.6050538e+02 </wgt>
<wgt id='8'> +4.9977465e+02 </wgt>
<wgt id='9'> +6.7129581e+02 </wgt>
<wgt id='10'> +3.7122517e+02 </wgt>
<wgt id='11'> +5.4534524e+02 </wgt>
<wgt id='12'> +5.1597094e+02 </wgt>
<wgt id='13'> +4.6039174e+02 </wgt>
<wgt id='14'> +6.2155999e+02 </wgt>
<wgt id='15'> +3.4267366e+02 </wgt>
<wgt id='16'> +5.1473886e+02 </wgt>
<wgt id='17'> +4.9185985e+02 </wgt>
<wgt id='18'> +4.4814986e+02 </wgt>
<wgt id='19'> +5.7512356e+02 </wgt>
<wgt id='20'> +3.4220040e+02 </wgt>
<wgt id='21'> +4.5876645e+02 </wgt>
<wgt id='22'> +4.1494676e+02 </wgt>
<wgt id='23'> +5.3976549e+02 </wgt>
<wgt id='24'> +3.1529222e+02 </wgt>
<wgt id='25'> +4.4346302e+02 </wgt>
<wgt id='26'> +4.2231559e+02 </wgt>
<wgt id='27'> +3.8224839e+02 </wgt>
<wgt id='28'> +4.9977465e+02 </wgt>
<wgt id='29'> +2.9104260e+02 </wgt>
<wgt id='30'> +4.3277620e+02 </wgt>
<wgt id='31'> +4.1488970e+02 </wgt>
<wgt id='32'> +3.8003054e+02 </wgt>
<wgt id='33'> +4.7750652e+02 </wgt>
<wgt id='34'> +2.9424703e+02 </wgt>
<wgt id='35'> +4.0490905e+02 </wgt>
<wgt id='36'> +3.8697502e+02 </wgt>
<wgt id='37'> +3.5187435e+02 </wgt>
<wgt id='38'> +4.4814986e+02 </wgt>
<wgt id='39'> +2.7110956e+02 </wgt>
<wgt id='40'> +3.7284972e+02 </wgt>
<wgt id='41'> +3.5622828e+02 </wgt>
<wgt id='42'> +3.2414618e+02 </wgt>
<wgt id='43'> +4.1494676e+02 </wgt>
<wgt id='44'> +2.5025810e+02 </wgt>
<wgt id='45'> +4.8159400e+02 </wgt>
<wgt id='46'> +4.8763097e+02 </wgt>
<wgt id='47'> +5.0296903e+02 </wgt>
<wgt id='48'> +4.8702119e+02 </wgt>
<wgt id='49'> +4.8058309e+02 </wgt>
<wgt id='50'> +5.8259208e+02 </wgt>
<wgt id='51'> +4.7226469e+02 </wgt>
<wgt id='52'> +4.8065503e+02 </wgt>
<wgt id='53'> +4.8273409e+02 </wgt>
<wgt id='54'> +4.8427371e+02 </wgt>
<wgt id='55'> +4.2631580e+02 </wgt>
<wgt id='56'> +4.4010333e+02 </wgt>
<wgt id='57'> +4.6757308e+02 </wgt>
<wgt id='58'> +4.7964522e+02 </wgt>
<wgt id='59'> +4.8029817e+02 </wgt>
<wgt id='60'> +4.6701334e+02 </wgt>
<wgt id='61'> +4.5747601e+02 </wgt>
<wgt id='62'> +4.7659874e+02 </wgt>
<wgt id='63'> +4.8184151e+02 </wgt>
<wgt id='64'> +4.7130300e+02 </wgt>
<wgt id='65'> +5.7156941e+02 </wgt>
<wgt id='66'> +4.7070602e+02 </wgt>
<wgt id='67'> +4.8594589e+02 </wgt>
<wgt id='68'> +5.2395919e+02 </wgt>
<wgt id='69'> +4.7659872e+02 </wgt>
<wgt id='70'> +4.7167859e+02 </wgt>
<wgt id='71'> +4.9084794e+02 </wgt>
<wgt id='72'> +4.5652675e+02 </wgt>
<wgt id='73'> +4.7248783e+02 </wgt>
<wgt id='74'> +5.0290559e+02 </wgt>
<wgt id='75'> +4.9422485e+02 </wgt>
<wgt id='76'> +4.6490424e+02 </wgt>
<wgt id='77'> +4.6714799e+02 </wgt>
<wgt id='78'> +4.7558253e+02 </wgt>
<wgt id='79'> +4.6452884e+02 </wgt>
<wgt id='80'> +4.7512979e+02 </wgt>
<wgt id='81'> +4.6962024e+02 </wgt>
<wgt id='82'> +4.9193607e+02 </wgt>
<wgt id='83'> +4.9547542e+02 </wgt>
<wgt id='84'> +5.3466484e+02 </wgt>
<wgt id='85'> +5.0876817e+02 </wgt>
<wgt id='86'> +4.8209183e+02 </wgt>
<wgt id='87'> +4.8396901e+02 </wgt>
<wgt id='88'> +4.9226117e+02 </wgt>
<wgt id='89'> +4.9729337e+02 </wgt>
<wgt id='90'> +4.8966894e+02 </wgt>
<wgt id='91'> +5.1239613e+02 </wgt>
<wgt id='92'> +4.3009041e+02 </wgt>
<wgt id='93'> +4.7648958e+02 </wgt>
<wgt id='94'> +4.7472799e+02 </wgt>
<wgt id='95'> +4.5782643e+02 </wgt>
<wgt id='96'> +5.3070647e+02 </wgt>
<wgt id='97'> +4.8599388e+02 </wgt>
<wgt id='98'> +4.5932804e+02 </wgt>
<wgt id='99'> +4.6518192e+02 </wgt>
<wgt id='100'> +4.6810775e+02 </wgt>
<wgt id='101'> +5.1905517e+02 </wgt>
<wgt id='102'> +4.7718247e+02 </wgt>
<wgt id='103'> +5.3067260e+02 </wgt>
<wgt id='104'> +4.8379680e+02 </wgt>
<wgt id='105'> +4.9684310e+02 </wgt>
<wgt id='106'> +4.3115378e+02 </wgt>
<wgt id='107'> +4.6524012e+02 </wgt>
<wgt id='108'> +4.1957834e+02 </wgt>
<wgt id='109'> +4.4494208e+02 </wgt>
<wgt id='110'> +4.8077806e+02 </wgt>
<wgt id='111'> +4.6469774e+02 </wgt>
<wgt id='112'> +4.5266517e+02 </wgt>
<wgt id='113'> +4.3528414e+02 </wgt>
<wgt id='114'> +4.6987492e+02 </wgt>
<wgt id='115'> +4.7183973e+02 </wgt>
<wgt id='116'> +4.9013884e+02 </wgt>
<wgt id='117'> +4.8462379e+02 </wgt>
<wgt id='118'> +5.0251588e+02 </wgt>
<wgt id='119'> +4.5856807e+02 </wgt>
<wgt id='120'> +4.7278652e+02 </wgt>
<wgt id='121'> +4.6424398e+02 </wgt>
<wgt id='122'> +4.7378887e+02 </wgt>
<wgt id='123'> +4.9054459e+02 </wgt>
<wgt id='124'> +5.2592382e+02 </wgt>
<wgt id='125'> +5.2567655e+02 </wgt>
<wgt id='126'> +5.0493651e+02 </wgt>
<wgt id='127'> +5.0001326e+02 </wgt>
<wgt id='128'> +4.4015696e+02 </wgt>
<wgt id='129'> +5.5156059e+02 </wgt>
<wgt id='130'> +4.8763052e+02 </wgt>
<wgt id='131'> +5.1732874e+02 </wgt>
<wgt id='132'> +4.8219356e+02 </wgt>
<wgt id='133'> +4.8455817e+02 </wgt>
<wgt id='134'> +4.5267424e+02 </wgt>
<wgt id='135'> +4.9483886e+02 </wgt>
<wgt id='136'> +4.6511709e+02 </wgt>
<wgt id='137'> +4.5471113e+02 </wgt>
<wgt id='138'> +4.4356606e+02 </wgt>
<wgt id='139'> +4.9486465e+02 </wgt>
<wgt id='140'> +5.0966708e+02 </wgt>
<wgt id='141'> +4.8248709e+02 </wgt>
<wgt id='142'> +4.7764964e+02 </wgt>
<wgt id='143'> +4.8043178e+02 </wgt>
<wgt id='144'> +4.7673364e+02 </wgt>
<wgt id='145'> +4.8315395e+02 </wgt>
</rwgt>
</event>
<event>
 8      1 +4.8159400e+02 2.08967400e+02 7.54677100e-03 1.14419300e-01
       21 -1    0    0  503  502 +0.0000000000e+00 +0.0000000000e+00 +2.2395365819e+02 2.2395365819e+02 0.0000000000e+00 0.0000e+00 -1.0000e+00
       21 -1    0    0  501  503 -0.0000000000e+00 -0.0000000000e+00 -3.0854062529e+02 3.0854062529e+02 0.0000000000e+00 0.0000e+00 1.0000e+00
        6  2    1    2  501    0 -8.7441203141e+01 -4.9363846822e+01 -2.1006418120e+02 2.9630112059e+02 1.8326112642e+02 0.0000e+00 0.0000e+00
       -6  2    1    2    0  502 +8.7441203141e+01 +4.9363846822e+01 +1.2547721410e+02 2.3619316289e+02 1.7308935715e+02 0.0000e+00 0.0000e+00
        5  1    3    3  501    0 -4.3212333521e+01 -4.6429837793e+01 -1.9259924471e+02 2.0282897887e+02 4.7000000000e+00 0.0000e+00 -1.0000e+00
       24  1    3    3    0    0 -4.4228869620e+01 -2.9340090290e+00 -1.7464936493e+01 9.3472141721e+01 8.0419002446e+01 0.0000e+00 0.0000e+00
       -5  1    4    4    0  502 +8.0275914053e+01 +4.9315767314e+00 +1.1913541182e+02 1.4381891105e+02 4.7000000000e+00 0.0000e+00 1.0000e+00
      -24  1    4    4    0    0 +7.1652890878e+00 +4.4432270091e+01 +6.3418022888e+00 9.2374251844e+01 8.0419002446e+01 0.0000e+00 -1.0000e+00
<mgrwt>
<rscale>  2 0.20671613E+03</rscale>
<asrwt>0</asrwt>
<pdfrwt beam="1">  1       21 0.34454409E-01 0.20896745E+03</pdfrwt>
<pdfrwt beam="2">  1       21 0.47467788E-01 0.20896745E+03</pdfrwt>
<totfact> 0.34164253E+04</totfact>
</mgrwt>
<rwgt>
<wgt id='1'> +6.2556203e+02 </wgt>
<wgt id='2'> +5.2851203e+02 </wgt>
<wgt id='3'> +5.2500985e+02 </wgt>
<wgt id='4'> +6.8574381e+02 </wgt>
<wgt id='5'> +4.4211792e+02 </wgt>
<wgt id='6'> +5.8877535e+02 </wgt>
<wgt id='7'> +4.9152179e+02 </wgt>
<wgt id='8'> +4.8811038e+02 </wgt>
<wgt id='9'> +6.4893725e+02 </wgt>
<wgt id='10'> +4.1039895e+02 </wgt>
<wgt id='11'> +5.4635193e+02 </wgt>
<wgt id='12'> +4.5636402e+02 </wgt>
<wgt id='13'> +4.5320718e+02 </wgt>
<wgt id='14'> +6.0332775e+02 </wgt>
<wgt id='15'> +3.8134527e+02 </wgt>
<wgt id='16'> +5.1168398e+02 </wgt>
<wgt id='17'> +4.4228783e+02 </wgt>
<wgt id='18'> +4.3967299e+02 </wgt>
<wgt id='19'> +5.5478746e+02 </wgt>
<wgt id='20'> +3.7461144e+02 </wgt>
<wgt id='21'> +4.1133237e+02 </wgt>
<wgt id='22'> +4.0877128e+02 </wgt>
<wgt id='23'> +5.2500985e+02 </wgt>
<wgt id='24'> +3.4773560e+02 </wgt>
<wgt id='25'> +4.4689338e+02 </wgt>
<wgt id='26'> +3.8191042e+02 </wgt>
<wgt id='27'> +3.7954137e+02 </wgt>
<wgt id='28'> +4.8811038e+02 </wgt>
<wgt id='29'> +3.2311809e+02 </wgt>
<wgt id='30'> +4.3151176e+02 </wgt>
<wgt id='31'> +3.7623652e+02 </wgt>
<wgt id='32'> +3.7413803e+02 </wgt>
<wgt id='33'> +4.6461045e+02 </wgt>
<wgt id='34'> +3.2146451e+02 </wgt>
<wgt id='35'> +4.0613637e+02 </wgt>
<wgt id='36'> +3.4990395e+02 </wgt>
<wgt id='37'> +3.4784235e+02 </wgt>
<wgt id='38'> +4.3967299e+02 </wgt>
<wgt id='39'> +2.9840161e+02 </wgt>
<wgt id='40'> +3.7687275e+02 </wgt>
<wgt id='41'> +3.2487588e+02 </wgt>
<wgt id='42'> +3.2296927e+02 </wgt>
<wgt id='43'> +4.0877128e+02 </wgt>
<wgt id='44'> +2.7727664e+02 </wgt>
<wgt id='45'> +4.8159400e+02 </wgt>
<wgt id='46'> +4.8494163e+02 </wgt>
<wgt id='47'> +5.0133267e+02 </wgt>
<wgt id='48'> +4.8536415e+02 </wgt>
<wgt id='49'> +4.8062248e+02 </wgt>
<wgt id='50'> +5.7334737e+02 </wgt>
<wgt id='51'> +4.7235456e+02 </wgt>
<wgt id='52'> +4.7959897e+02 </wgt>
<wgt id='53'> +4.8505723e+02 </wgt>
<wgt id='54'> +4.8429190e+02 </wgt>
<wgt id='55'> +4.2781321e+02 </wgt>
<wgt id='56'> +4.4396951e+02 </wgt>
<wgt id='57'> +4.6771010e+02 </wgt>
<wgt id='58'> +4.8178957e+02 </wgt>
<wgt id='59'> +4.7715325e+02 </wgt>
<wgt id='60'> +4.6431811e+02 </wgt>
<wgt id='61'> +4.6354096e+02 </wgt>
<wgt id='62'> +4.7611617e+02 </wgt>
<wgt id='63'> +4.8198372e+02 </wgt>
<wgt id='64'> +4.7394171e+02 </wgt>
<wgt id='65'> +5.7041254e+02 </wgt>
<wgt id='66'> +4.7067143e+02 </wgt>
<wgt id='67'> +4.8597745e+02 </wgt>
<wgt id='68'> +5.2009517e+02 </wgt>
<wgt id='69'> +4.7398973e+02 </wgt>
<wgt id='70'> +4.7261643e+02 </wgt>
<wgt id='71'> +4.9069804e+02 </wgt>
<wgt id='72'> +4.6107582e+02 </wgt>
<wgt id='73'> +4.7366303e+02 </wgt>
<wgt id='74'> +4.9968635e+02 </wgt>
<wgt id='75'> +4.9352883e+02 </wgt>
<wgt id='76'> +4.6587487e+02 </wgt>
<wgt id='77'> +4.6560731e+02 </wgt>
<wgt id='78'> +4.7865207e+02 </wgt>
<wgt id='79'> +4.6333439e+02 </wgt>
<wgt id='80'> +4.7627926e+02 </wgt>
<wgt id='81'> +4.7103908e+02 </wgt>
<wgt id='82'> +4.9343809e+02 </wgt>
<wgt id='83'> +4.9403116e+02 </wgt>
<wgt id='84'> +5.3237195e+02 </wgt>
<wgt id='85'> +5.0807223e+02 </wgt>
<wgt id='86'> +4.8064304e+02 </wgt>
<wgt id='87'> +4.8283315e+02 </wgt>
<wgt id='88'> +4.9158014e+02 </wgt>
<wgt id='89'> +4.9515699e+02 </wgt>
<wgt id='90'> +4.8812219e+02 </wgt>
<wgt id='91'> +5.1256428e+02 </wgt>
<wgt id='92'> +4.3554040e+02 </wgt>
<wgt id='93'> +4.7511352e+02 </wgt>
<wgt id='94'> +4.7661632e+02 </wgt>
<wgt id='95'> +4.5926226e+02 </wgt>
<wgt id='96'> +5.2640936e+02 </wgt>
<wgt id='97'> +4.8741742e+02 </wgt>
<wgt id='98'> +4.5938238e+02 </wgt>
<wgt id='99'> +4.6627858e+02 </wgt>
<wgt id='100'> +4.7250222e+02 </wgt>
<wgt id='101'> +5.1271210e+02 </wgt>
<wgt id='102'> +4.7281196e+02 </wgt>
<wgt id='103'> +5.2699205e+02 </wgt>
<wgt id='104'> +4.8271905e+02 </wgt>
<wgt id='105'> +4.9820396e+02 </wgt>
<wgt id='106'> +4.3636019e+02 </wgt>
<wgt id='107'> +4.6992165e+02 </wgt>
<wgt id='108'> +4.2517302e+02 </wgt>
<wgt id='109'> +4.4821056e+02 </wgt>
<wgt id='110'> +4.8135139e+02 </wgt>
<wgt id='111'> +4.6657517e+02 </wgt>
<wgt id='112'> +4.5603408e+02 </wgt>
<wgt id='113'> +4.3842043e+02 </wgt>
<wgt id='114'> +4.7456115e+02 </wgt>
<wgt id='115'> +4.7730241e+02 </wgt>
<wgt id='116'> +4.8615955e+02 </wgt>
<wgt id='117'> +4.8642641e+02 </wgt>
<wgt id='118'> +4.9845898e+02 </wgt>
<wgt id='119'> +4.6038859e+02 </wgt>
<wgt id='120'> +4.7644994e+02 </wgt>
<wgt id='121'> +4.6561626e+02 </wgt>
<wgt id='122'> +4.7440442e+02 </wgt>
<wgt id='123'> +4.8955995e+02 </wgt>
<wgt id='124'> +5.2028619e+02 </wgt>
<wgt id='125'> +5.2071604e+02 </wgt>
<wgt id='126'> +5.0297268e+02 </wgt>
<wgt id='127'> +4.9809744e+02 </wgt>
<wgt id='128'> +4.4390966e+02 </wgt>
<wgt id='129'> +5.4835026e+02 </wgt>
<wgt id='130'> +4.8714613e+02 </wgt>
<wgt id='131'> +5.1661340e+02 </wgt>
<wgt id='132'> +4.7878086e+02 </wgt>
<wgt id='133'> +4.8163079e+02 </wgt>
<wgt id='134'> +4.5265008e+02 </wgt>
<wgt id='135'> +4.9435812e+02 </wgt>
<wgt id='136'> +4.6285244e+02 </wgt>
<wgt id='137'> +4.5453397e+02 </wgt>
<wgt id='138'> +4.4170030e+02 </wgt>
<wgt id='139'> +4.9285379e+02 </wgt>
<wgt id='140'> +5.1075086e+02 </wgt>
<wgt id='141'> +4.8188660e+02 </wgt>
<wgt id='142'> +4.8115513e+02 </wgt>
<wgt id='143'> +4.7866188e+02 </wgt>
<wgt id='144'> +4.7856874e+02 </wgt>
<wgt id='145'> +4.8293315e+02 </wgt>
</rwgt>
</event>
<event>
 8      1 +4.8159400e+02 2.37787400e+02 7.54677100e-03 1.12150000e-01
       21 -1    0    0  503  502 +0.0000000000e+00 +0.0000000000e+00 +1.1805980724e+02 1.1805980724e+02 0.0000000000e+00 0.0000e+00 1.0000e+00
       21 -1    0    0  501  503 -0.0000000000e+00 -0.0000000000e+00 -5.0868178208e+02 5.0868178208e+02 0.0000000000e+00 0.0000e+00 1.0000e+00
        6  2    1    2  501    0 -4.7227606589e+01 -1.5434586681e+02 -2.7390851431e+02 3.6185502049e+02 1.7280071823e+02 0.0000e+00 0.0000e+00
       -6  2    1    2    0  502 +4.7227606589e+01 +1.5434586681e+02 -1.1671346053e+02 2.6488656882e+02 1.7461319839e+02 0.0000e+00 0.0000e+00
        5  1    3    3  501    0 +1.7166518623e+01 -9.7848736238e+01 -1.9911669240e+02 2.2257271113e+02 4.7000000000e+00 0.0000e+00 -1.0000e+00
       24  1    3    3    0    0 -6.4394125212e+01 -5.6497130568e+01 -7.4791821905e+01 1.3928230937e+02 8.0419002446e+01 0.0000e+00 0.0000e+00
       -5  1    4    4    0  502 -1.1227218762e+01 +2.8344276090e+01 +3.3160493655e+01 4.5289698250e+01 4.7000000000e+00 0.0000e+00 1.0000e+00
      -24  1    4    4    0    0 +5.8454825351e+01 +1.2600159072e+02 -1.4987395418e+02 2.1959687057e+02 8.0419002446e+01 0.0000e+00 1.0000e+00
<mgrwt>
<rscale>  2 0.23745480E+03</rscale>
<asrwt>0</asrwt>
<pdfrwt beam="1">  1       21 0.18163047E-01 0.23778743E+03</pdfrwt>
<pdfrwt beam="2">  1       21 0.78258735E-01 0.23778743E+03</pdfrwt>
<totfact> 0.39028502E+04</totfact>
</mgrwt>
<rwgt>
<wgt id='1'> +6.2234730e+02 </wgt>
<wgt id='2'> +5.2005652e+02 </wgt>
<wgt id='3'> +5.0865966e+02 </wgt>
<wgt id='4'> +6.5971697e+02 </wgt>
<wgt id='5'> +4.7625899e+02 </wgt>
<wgt id='6'> +5.8431306e+02 </wgt>
<wgt id='7'> +4.8321049e+02 </wgt>
<wgt id='8'> +4.7252459e+02 </wgt>
<wgt id='9'> +6.2229791e+02 </wgt>
<wgt id='10'> +4.4251608e+02 </wgt>
<wgt id='11'> +5.4290858e+02 </wgt>
<wgt id='12'> +4.4913908e+02 </wgt>
<wgt id='13'> +4.3923940e+02 </wgt>
<wgt id='14'> +5.7809000e+02 </wgt>
<wgt id='15'> +4.1144926e+02 </wgt>
<wgt id='16'> +5.1294203e+02 </wgt>
<wgt id='17'> +4.3780177e+02 </wgt>
<wgt id='18'> +4.2884901e+02 </wgt>
<wgt id='19'> +5.3924561e+02 </wgt>
<wgt id='20'> +4.0297703e+02 </wgt>
<wgt id='21'> +4.0678349e+02 </wgt>
<wgt id='22'> +3.9838367e+02 </wgt>
<wgt id='23'> +5.0865966e+02 </wgt>
<wgt id='24'> +3.7442614e+02 </wgt>
<wgt id='25'> +4.4746820e+02 </wgt>
<wgt id='26'> +3.7810099e+02 </wgt>
<wgt id='27'> +3.7032105e+02 </wgt>
<wgt id='28'> +4.7252459e+02 </wgt>
<wgt id='29'> +3.4813957e+02 </wgt>
<wgt id='30'> +4.3373913e+02 </wgt>
<wgt id='31'> +3.7363197e+02 </wgt>
<wgt id='32'> +3.6639377e+02 </wgt>
<wgt id='33'> +4.5463591e+02 </wgt>
<wgt id='34'> +3.4539260e+02 </wgt>
<wgt id='35'> +4.0723152e+02 </wgt>
<wgt id='36'> +3.4716013e+02 </wgt>
<wgt id='37'> +3.4036523e+02 </wgt>
<wgt id='38'> +4.2884901e+02 </wgt>
<wgt id='39'> +3.2092157e+02 </wgt>
<wgt id='40'> +3.7837506e+02 </wgt>
<wgt id='41'> +3.2268169e+02 </wgt>
<wgt id='42'> +3.1638950e+02 </wgt>
<wgt id='43'> +3.9838367e+02 </wgt>
<wgt id='44'> +2.9839129e+02 </wgt>
<wgt id='45'> +4.8159400e+02 </wgt>
<wgt id='46'> +4.8842071e+02 </wgt>
<wgt id='47'> +4.9859251e+02 </wgt>
<wgt id='48'> +4.8544252e+02 </wgt>
<wgt id='49'> +4.7685401e+02 </wgt>
<wgt id='50'> +5.7123017e+02 </wgt>
<wgt id='51'> +4.7110771e+02 </wgt>
<wgt id='52'> +4.8002665e+02 </wgt>
<wgt id='53'> +4.8029425e+02 </wgt>
<wgt id='54'> +4.8686331e+02 </wgt>
<wgt id='55'> +4.4397179e+02 </wgt>
<wgt id='56'> +4.4262305e+02 </wgt>
<wgt id='57'> +4.7641630e+02 </wgt>
<wgt id='58'> +4.7633906e+02 </wgt>
<wgt id='59'> +4.8881870e+02 </wgt>
<wgt id='60'> +4.7285013e+02 </wgt>
<wgt id='61'> +4.4027053e+02 </wgt>
<wgt id='62'> +4.7410247e+02 </wgt>
<wgt id='63'> +4.8285476e+02 </wgt>
<wgt id='64'> +4.7309605e+02 </wgt>
<wgt id='65'> +5.5003241e+02 </wgt>
<wgt id='66'> +4.7243485e+02 </wgt>
<wgt id='67'> +4.8517354e+02 </wgt>
<wgt id='68'> +5.2562516e+02 </wgt>
<wgt id='69'> +4.7811462e+02 </wgt>
<wgt id='70'> +4.7464266e+02 </wgt>
<wgt id='71'> +4.8826207e+02 </wgt>
<wgt id='72'> +4.6280149e+02 </wgt>
<wgt id='73'> +4.6986936e+02 </wgt>
<wgt id='74'> +5.0441353e+02 </wgt>
<wgt id='75'> +4.9315375e+02 </wgt>
<wgt id='76'> +4.7156771e+02 </wgt>
<wgt id='77'> +4.6919514e+02 </wgt>
<wgt id='78'> +4.6911456e+02 </wgt>
<wgt id='79'> +4.7052706e+02 </wgt>
<wgt id='80'> +4.7185139e+02 </wgt>
<wgt id='81'> +4.7237920e+02 </wgt>
<wgt id='82'> +4.8321064e+02 </wgt>
<wgt id='83'> +4.9026412e+02 </wgt>
<wgt id='84'> +5.2311978e+02 </wgt>
<wgt id='85'> +4.9768544e+02 </wgt>
<wgt id='86'> +4.8246463e+02 </wgt>
<wgt id='87'> +4.8372729e+02 </wgt>
<wgt id='88'> +4.8711936e+02 </wgt>
<wgt id='89'> +4.9017087e+02 </wgt>
<wgt id='90'> +4.8923533e+02 </wgt>
<wgt id='91'> +5.0143267e+02 </wgt>
<wgt id='92'> +4.3954933e+02 </wgt>
<wgt id='93'> +4.7734693e+02 </wgt>
<wgt id='94'> +4.7248331e+02 </wgt>
<wgt id='95'> +4.6857916e+02 </wgt>
<wgt id='96'> +5.1944956e+02 </wgt>
<wgt id='97'> +4.8135308e+02 </wgt>
<wgt id='98'> +4.6634745e+02 </wgt>
<wgt id='99'> +4.6110145e+02 </wgt>
<wgt id='100'> +4.6013897e+02 </wgt>
<wgt id='101'> +5.2166174e+02 </wgt>
<wgt id='102'> +4.8473053e+02 </wgt>
<wgt id='103'> +5.2075269e+02 </wgt>
<wgt id='104'> +4.8469323e+02 </wgt>
<wgt id='105'> +4.9744860e+02 </wgt>
<wgt id='106'> +4.3976871e+02 </wgt>
<wgt id='107'> +4.6489489e+02 </wgt>
<wgt id='108'> +4.2697408e+02 </wgt>
<wgt id='109'> +4.5205211e+02 </wgt>
<wgt id='110'> +4.7880237e+02 </wgt>
<wgt id='111'> +4.6814759e+02 </wgt>
<wgt id='112'> +4.5689374e+02 </wgt>
<wgt id='113'> +4.4433080e+02 </wgt>
<wgt id='114'> +4.7356555e+02 </wgt>
<wgt id='115'> +4.6688178e+02 </wgt>
<wgt id='116'> +4.9226640e+02 </wgt>
<wgt id='117'> +4.8104234e+02 </wgt>
<wgt id='118'> +5.0112806e+02 </wgt>
<wgt id='119'> +4.6646995e+02 </wgt>
<wgt id='120'> +4.7304413e+02 </wgt>
<wgt id='121'> +4.6960998e+02 </wgt>
<wgt id='122'> +4.7588239e+02 </wgt>
<wgt id='123'> +4.8661285e+02 </wgt>
<wgt id='124'> +5.2560488e+02 </wgt>
<wgt id='125'> +5.2871871e+02 </wgt>
<wgt id='126'> +4.9869926e+02 </wgt>
<wgt id='127'> +4.9517100e+02 </wgt>
<wgt id='128'> +4.4187379e+02 </wgt>
<wgt id='129'> +5.4168898e+02 </wgt>
<wgt id='130'> +4.8086297e+02 </wgt>
<wgt id='131'> +5.0727537e+02 </wgt>
<wgt id='132'> +4.9281632e+02 </wgt>
<wgt id='133'> +4.8851982e+02 </wgt>
<wgt id='134'> +4.6193260e+02 </wgt>
<wgt id='135'> +4.9046120e+02 </wgt>
<wgt id='136'> +4.8136336e+02 </wgt>
<wgt id='137'> +4.5925565e+02 </wgt>
<wgt id='138'> +4.4843065e+02 </wgt>
<wgt id='139'> +4.9406652e+02 </wgt>
<wgt id='140'> +5.0201422e+02 </wgt>
<wgt id='141'> +4.8619362e+02 </wgt>
<wgt id='142'> +4.6470944e+02 </wgt>
<wgt id='143'> +4.8535020e+02 </wgt>
<wgt id='144'> +4.7496966e+02 </wgt>
<wgt id='145'> +4.8061819e+02 </wgt>
</rwgt>
</event>
<event>
 8      1 +4.8159400e+02 1.88711700e+02 7.54677100e-03 1.15982700e-01
       21 -1    0    0  503  502 +0.0000000000e+00 +0.0000000000e+00 +6.5072439329e+02 6.5072439329e+02 0.0000000000e+00 0.0000e+00 1.0000e+00
       21 -1    0    0  501  503 -0.0000000000e+00 -0.0000000000e+00 -8.5440373998e+01 8.5440373998e+01 0.0000000000e+00 0.0000e+00 1.0000e+00
        6  2    1    2  501    0 +7.5179993325e+01 +4.6591375280e+00 +6.1466227609e+01 1.9846963540e+02 1.7302705014e+02 0.0000e+00 0.0000e+00
       -6  2    1    2    0  502 -7.5179993325e+01 -4.6591375280e+00 +5.0381779168e+02 5.3769513189e+02 1.7207541568e+02 0.0000e+00 0.0000e+00
        5  1    3    3  501    0 +9.2534402507e+01 -2.7557262542e+01 +1.2541823605e+01 9.7475154298e+01 4.7000000000e+00 0.0000e+00 -1.0000e+00
       24  1    3    3    0    0 -1.7354409182e+01 +3.2216400070e+01 +4.8924404004e+01 1.0099448110e+02 8.0419002446e+01 0.0000e+00 1.0000e+00
       -5  1    4    4    0  502 -9.4261472312e+01 -3.0814780490e+01 +3.0634309875e+02 3.2202943966e+02 4.7000000000e+00 0.0000e+00 1.0000e+00
      -24  1    4    4    0    0 +1.9081478987e+01 +2.6155642962e+01 +1.9747469294e+02 2.1566569223e+02 8.0419002446e+01 0.0000e+00 1.0000e+00
<mgrwt>
<rscale>  2 0.18849326E+03</rscale>
<asrwt>0</asrwt>
<pdfrwt beam="1">  1       21 0.10011144E+00 0.18871168E+03</pdfrwt>
<pdfrwt beam="2">  1       21 0.13144673E-01 0.18871168E+03</pdfrwt>
<totfact> 0.40883236E+04</totfact>
</mgrwt>
<rwgt>
<wgt id='1'> +6.2698973e+02 </wgt>
<wgt id='2'> +5.3030254e+02 </wgt>
<wgt id='3'> +4.8450634e+02 </wgt>
<wgt id='4'> +6.3098389e+02 </wgt>
<wgt id='5'> +4.4385534e+02 </wgt>
<wgt id='6'> +5.9158483e+02 </wgt>
<wgt id='7'> +4.9408672e+02 </wgt>
<wgt id='8'> +4.4943572e+02 </wgt>
<wgt id='9'> +5.9559598e+02 </wgt>
<wgt id='10'> +4.1160842e+02 </wgt>
<wgt id='11'> +5.4868717e+02 </wgt>
<wgt id='12'> +4.5823898e+02 </wgt>
<wgt id='13'> +4.1692170e+02 </wgt>
<wgt id='14'> +5.5248422e+02 </wgt>
<wgt id='15'> +3.8195181e+02 </wgt>
<wgt id='16'> +5.1041622e+02 </wgt>
<wgt id='17'> +4.4168530e+02 </wgt>
<wgt id='18'> +4.0746172e+02 </wgt>
<wgt id='19'> +5.1329375e+02 </wgt>
<wgt id='20'> +3.7526623e+02 </wgt>
<wgt id='21'> +4.1152140e+02 </wgt>
<wgt id='22'> +3.7796791e+02 </wgt>
<wgt id='23'> +4.8450634e+02 </wgt>
<wgt id='24'> +3.4800244e+02 </wgt>
<wgt id='25'> +4.4667212e+02 </wgt>
<wgt id='26'> +3.8166407e+02 </wgt>
<wgt id='27'> +3.5062416e+02 </wgt>
<wgt id='28'> +4.4943572e+02 </wgt>
<wgt id='29'> +3.2292868e+02 </wgt>
<wgt id='30'> +4.2945408e+02 </wgt>
<wgt id='31'> +3.7499865e+02 </wgt>
<wgt id='32'> +3.4751797e+02 </wgt>
<wgt id='33'> +4.3167145e+02 </wgt>
<wgt id='34'> +3.2142714e+02 </wgt>
<wgt id='35'> +4.0520364e+02 </wgt>
<wgt id='36'> +3.4938896e+02 </wgt>
<wgt id='37'> +3.2236314e+02 </wgt>
<wgt id='38'> +4.0746172e+02 </wgt>
<wgt id='39'> +2.9807486e+02 </wgt>
<wgt id='40'> +3.7582106e+02 </wgt>
<wgt id='41'> +3.2403956e+02 </wgt>
<wgt id='42'> +2.9904208e+02 </wgt>
<wgt id='43'> +3.7796791e+02 </wgt>
<wgt id='44'> +2.7659840e+02 </wgt>
<wgt id='45'> +4.8159400e+02 </wgt>
<wgt id='46'> +4.9079798e+02 </wgt>
<wgt id='47'> +4.9609610e+02 </wgt>
<wgt id='48'> +4.8407308e+02 </wgt>
<wgt id='49'> +4.7319010e+02 </wgt>
<wgt id='50'> +5.7084604e+02 </wgt>
<wgt id='51'> +4.6906720e+02 </wgt>
<wgt id='52'> +4.7970183e+02 </wgt>
<wgt id='53'> +4.7676622e+02 </wgt>
<wgt id='54'> +4.8994756e+02 </wgt>
<wgt id='55'> +4.5708996e+02 </wgt>
<wgt id='56'> +4.4163934e+02 </wgt>
<wgt id='57'> +4.8359884e+02 </wgt>
<wgt id='58'> +4.7163723e+02 </wgt>
<wgt id='59'> +4.9809645e+02 </wgt>
<wgt id='60'> +4.7881149e+02 </wgt>
<wgt id='61'> +4.2817390e+02 </wgt>
<wgt id='62'> +4.7136808e+02 </wgt>
<wgt id='63'> +4.8450514e+02 </wgt>
<wgt id='64'> +4.7367641e+02 </wgt>
<wgt id='65'> +5.3394270e+02 </wgt>
<wgt id='66'> +4.7337873e+02 </wgt>
<wgt id='67'> +4.8441344e+02 </wgt>
<wgt id='68'> +5.3043982e+02 </wgt>
<wgt id='69'> +4.8052983e+02 </wgt>
<wgt id='70'> +4.7673981e+02 </wgt>
<wgt id='71'> +4.8513519e+02 </wgt>
<wgt id='72'> +4.6385366e+02 </wgt>
<wgt id='73'> +4.6585880e+02 </wgt>
<wgt id='74'> +5.0911384e+02 </wgt>
<wgt id='75'> +4.9320641e+02 </wgt>
<wgt id='76'> +4.7595708e+02 </wgt>
<wgt id='77'> +4.7074596e+02 </wgt>
<wgt id='78'> +4.6075225e+02 </wgt>
<wgt id='79'> +4.7601956e+02 </wgt>
<wgt id='80'> +4.6776427e+02 </wgt>
<wgt id='81'> +4.7367106e+02 </wgt>
<wgt id='82'> +4.7564044e+02 </wgt>
<wgt id='83'> +4.8664459e+02 </wgt>
<wgt id='84'> +5.1556925e+02 </wgt>
<wgt id='85'> +4.8927396e+02 </wgt>
<wgt id='86'> +4.8404778e+02 </wgt>
<wgt id='87'> +4.8412483e+02 </wgt>
<wgt id='88'> +4.8344840e+02 </wgt>
<wgt id='89'> +4.8480597e+02 </wgt>
<wgt id='90'> +4.8883580e+02 </wgt>
<wgt id='91'> +4.9157792e+02 </wgt>
<wgt id='92'> +4.4175327e+02 </wgt>
<wgt id='93'> +4.7880899e+02 </wgt>
<wgt id='94'> +4.6821385e+02 </wgt>
<wgt id='95'> +4.7640690e+02 </wgt>
<wgt id='96'> +5.1452565e+02 </wgt>
<wgt id='97'> +4.7576926e+02 </wgt>
<wgt id='98'> +4.7215760e+02 </wgt>
<wgt id='99'> +4.5539893e+02 </wgt>
<wgt id='100'> +4.4850233e+02 </wgt>
<wgt id='101'> +5.2959103e+02 </wgt>
<wgt id='102'> +4.9408490e+02 </wgt>
<wgt id='103'> +5.1567533e+02 </wgt>
<wgt id='104'> +4.8641430e+02 </wgt>
<wgt id='105'> +4.9761769e+02 </wgt>
<wgt id='106'> +4.4184802e+02 </wgt>
<wgt id='107'> +4.6141254e+02 </wgt>
<wgt id='108'> +4.2789081e+02 </wgt>
<wgt id='109'> +4.5541416e+02 </wgt>
<wgt id='110'> +4.7651396e+02 </wgt>
<wgt id='111'> +4.6903828e+02 </wgt>
<wgt id='112'> +4.5927281e+02 </wgt>
<wgt id='113'> +4.4916996e+02 </wgt>
<wgt id='114'> +4.7479448e+02 </wgt>
<wgt id='115'> +4.5870967e+02 </wgt>
<wgt id='116'> +4.9716339e+02 </wgt>
<wgt id='117'> +4.7697963e+02 </wgt>
<wgt id='118'> +5.0295465e+02 </wgt>
<wgt id='119'> +4.7270712e+02 </wgt>
<wgt id='120'> +4.7194565e+02 </wgt>
<wgt id='121'> +4.7326528e+02 </wgt>
<wgt id='122'> +4.7609126e+02 </wgt>
<wgt id='123'> +4.8357298e+02 </wgt>
<wgt id='124'> +5.3063099e+02 </wgt>
<wgt id='125'> +5.3729075e+02 </wgt>
<wgt id='126'> +4.9489625e+02 </wgt>
<wgt id='127'> +4.9233519e+02 </wgt>
<wgt id='128'> +4.3995942e+02 </wgt>
<wgt id='129'> +5.3725680e+02 </wgt>
<wgt id='130'> +4.7738046e+02 </wgt>
<wgt id='131'> +5.0026551e+02 </wgt>
<wgt id='132'> +5.0376284e+02 </wgt>
<wgt id='133'> +4.9429750e+02 </wgt>
<wgt id='134'> +4.6875403e+02 </wgt>
<wgt id='135'> +4.8733193e+02 </wgt>
<wgt id='136'> +4.9716158e+02 </wgt>
<wgt id='137'> +4.6219331e+02 </wgt>
<wgt id='138'> +4.5220992e+02 </wgt>
<wgt id='139'> +4.9546454e+02 </wgt>
<wgt id='140'> +4.9585958e+02 </wgt>
<wgt id='141'> +4.9095852e+02 </wgt>
<wgt id='142'> +4.5352325e+02 </wgt>
<wgt id='143'> +4.9002884e+02 </wgt>
<wgt id='144'> +4.7137867e+02 </wgt>
<wgt id='145'> +4.7652626e+02 </wgt>
</rwgt>
</event>
<event>
 8      1 +4.8159400e+02 1.81803400e+02 7.54677100e-03 1.16732600e-01
       21 -1    0    0  503  502 +0.0000000000e+00 +0.0000000000e+00 +5.7113021353e+02 5.7113021353e+02 0.0000000000e+00 0.0000e+00 -1.0000e+00
       21 -1    0    0  501  503 -0.0000000000e+00 -0.0000000000e+00 -5.9375709497e+01 5.9375709497e+01 0.0000000000e+00 0.0000e+00 -1.0000e+00
        6  2    1    2  501    0 +4.9921349671e+01 -2.4535459318e+01 +1.7987582456e+02 2.5209355842e+02 1.6763567645e+02 0.0000e+00 0.0000e+00
       -6  2    1    2    0  502 -4.9921349671e+01 +2.4535459318e+01 +3.3187867947e+02 3.7841236461e+02 1.7308474769e+02 0.0000e+00 0.0000e+00
        5  1    3    3  501    0 -4.2887285385e+01 +1.7452351570e+01 +5.4101001821e+01 7.1364642654e+01 4.7000000000e+00 0.0000e+00 -1.0000e+00
       24  1    3    3    0    0 +9.2808635057e+01 -4.1987810887e+01 +1.2577482274e+02 1.8072891576e+02 8.0419002446e+01 0.0000e+00 -1.0000e+00
       -5  1    4    4    0  502 -8.1846386739e+01 +6.5902734817e+00 +2.2602135281e+02 2.4052027909e+02 4.7000000000e+00 0.0000e+00 1.0000e+00
      -24  1    4    4    0    0 +3.1925037067e+01 +1.7945185836e+01 +1.0585732666e+02 1.3789208552e+02 8.0419002446e+01 0.0000e+00 1.0000e+00
<mgrwt>
<rscale>  2 0.18049431E+03</rscale>
<asrwt>0</asrwt>
<pdfrwt beam="1">  1       21 0.87866183E-01 0.18180335E+03</pdfrwt>
<pdfrwt beam="2">  1       21 0.91347249E-02 0.18180335E+03</pdfrwt>
<totfact> 0.10612689E+05</totfact>
</mgrwt>
<rwgt>
<wgt id='1'> +6.1655681e+02 </wgt>
<wgt id='2'> +5.2179112e+02 </wgt>
<wgt id='3'> +4.8852228e+02 </wgt>
<wgt id='4'> +6.2588946e+02 </wgt>
<wgt id='5'> +4.7852836e+02 </wgt>
<wgt id='6'> +5.9276087e+02 </wgt>
<wgt id='7'> +4.9442727e+02 </wgt>
<wgt id='8'> +4.6079558e+02 </wgt>
<wgt id='9'> +6.0242618e+02 </wgt>
<wgt id='10'> +4.5100228e+02 </wgt>
<wgt id='11'> +5.5874978e+02 </wgt>
<wgt id='12'> +4.6537751e+02 </wgt>
<wgt id='13'> +4.3361526e+02 </wgt>
<wgt id='14'> +5.6823472e+02 </wgt>
<wgt id='15'> +4.2437378e+02 </wgt>
<wgt id='16'> +5.0092723e+02 </wgt>
<wgt id='17'> +4.3430015e+02 </wgt>
<wgt id='18'> +4.0995614e+02 </wgt>
<wgt id='19'> +5.0754923e+02 </wgt>
<wgt id='20'> +4.0234610e+02 </wgt>
<wgt id='21'> +4.1152452e+02 </wgt>
<wgt id='22'> +3.8668856e+02 </wgt>
<wgt id='23'> +4.8852228e+02 </wgt>
<wgt id='24'> +3.7920220e+02 </wgt>
<wgt id='25'> +4.5396138e+02 </wgt>
<wgt id='26'> +3.8734566e+02 </wgt>
<wgt id='27'> +3.6387949e+02 </wgt>
<wgt id='28'> +4.6079558e+02 </wgt>
<wgt id='29'> +3.5681299e+02 </wgt>
<wgt id='30'> +4.2091756e+02 </wgt>
<wgt id='31'> +3.6863301e+02 </wgt>
<wgt id='32'> +3.4921557e+02 </wgt>
<wgt id='33'> +4.2592310e+02 </wgt>
<wgt id='34'> +3.4310945e+02 </wgt>
<wgt id='35'> +4.0467230e+02 </wgt>
<wgt id='36'> +3.4930110e+02 </wgt>
<wgt id='37'> +3.2939540e+02 </wgt>
<wgt id='38'> +4.0995614e+02 </wgt>
<wgt id='39'> +3.2337299e+02 </wgt>
<wgt id='40'> +3.8145325e+02 </wgt>
<wgt id='41'> +3.2877814e+02 </wgt>
<wgt id='42'> +3.0996580e+02 </wgt>
<wgt id='43'> +3.8668856e+02 </wgt>
<wgt id='44'> +3.0428009e+02 </wgt>
<wgt id='45'> +4.8159400e+02 </wgt>
<wgt id='46'> +4.8779977e+02 </wgt>
<wgt id='47'> +4.9402893e+02 </wgt>
<wgt id='48'> +4.8335158e+02 </wgt>
<wgt id='49'> +4.7623137e+02 </wgt>
<wgt id='50'> +5.5894439e+02 </wgt>
<wgt id='51'> +4.7097696e+02 </wgt>
<wgt id='52'> +4.8096940e+02 </wgt>
<wgt id='53'> +4.7812586e+02 </wgt>
<wgt id='54'> +4.8758093e+02 </wgt>
<wgt id='55'> +4.5371801e+02 </wgt>
<wgt id='56'> +4.4560969e+02 </wgt>
<wgt id='57'> +4.8099206e+02 </wgt>
<wgt id='58'> +4.7775446e+02 </wgt>
<wgt id='59'> +4.9324178e+02 </wgt>
<wgt id='60'> +4.7829413e+02 </wgt>
<wgt id='61'> +4.3580396e+02 </wgt>
<wgt id='62'> +4.7322743e+02 </wgt>
<wgt id='63'> +4.8340394e+02 </wgt>
<wgt id='64'> +4.7510915e+02 </wgt>
<wgt id='65'> +5.3469634e+02 </wgt>
<wgt id='66'> +4.7253566e+02 </wgt>
<wgt id='67'> +4.8462494e+02 </wgt>
<wgt id='68'> +5.2406060e+02 </wgt>
<wgt id='69'> +4.7486834e+02 </wgt>
<wgt id='70'> +4.7619256e+02 </wgt>
<wgt id='71'> +4.8706921e+02 </wgt>
<wgt id='72'> +4.6978732e+02 </wgt>
<wgt id='73'> +4.7080256e+02 </wgt>
<wgt id='74'> +5.0348519e+02 </wgt>
<wgt id='75'> +4.9103360e+02 </wgt>
<wgt id='76'> +4.7501491e+02 </wgt>
<wgt id='77'> +4.7089944e+02 </wgt>
<wgt id='78'> +4.6717277e+02 </wgt>
<wgt id='79'> +4.7346576e+02 </wgt>
<wgt id='80'> +4.7142883e+02 </wgt>
<wgt id='81'> +4.7416325e+02 </wgt>
<wgt id='82'> +4.7963056e+02 </wgt>
<wgt id='83'> +4.8549856e+02 </wgt>
<wgt id='84'> +5.1455025e+02 </wgt>
<wgt id='85'> +4.9267954e+02 </wgt>
<wgt id='86'> +4.8124363e+02 </wgt>
<wgt id='87'> +4.8375320e+02 </wgt>
<wgt id='88'> +4.8261232e+02 </wgt>
<wgt id='89'> +4.8831530e+02 </wgt>
<wgt id='90'> +4.8996867e+02 </wgt>
<wgt id='91'> +4.9642354e+02 </wgt>
<wgt id='92'> +4.4738743e+02 </wgt>
<wgt id='93'> +4.7762737e+02 </wgt>
<wgt id='94'> +4.7283604e+02 </wgt>
<wgt id='95'> +4.7448135e+02 </wgt>
<wgt id='96'> +5.1132195e+02 </wgt>
<wgt id='97'> +4.7971401e+02 </wgt>
<wgt id='98'> +4.6874563e+02 </wgt>
<wgt id='99'> +4.6158351e+02 </wgt>
<wgt id='100'> +4.6018184e+02 </wgt>
<wgt id='101'> +5.2065776e+02 </wgt>
<wgt id='102'> +4.8613295e+02 </wgt>
<wgt id='103'> +5.1587654e+02 </wgt>
<wgt id='104'> +4.8259481e+02 </wgt>
<wgt id='105'> +4.9869174e+02 </wgt>
<wgt id='106'> +4.4613555e+02 </wgt>
<wgt id='107'> +4.6693554e+02 </wgt>
<wgt id='108'> +4.3220851e+02 </wgt>
<wgt id='109'> +4.5711748e+02 </wgt>
<wgt id='110'> +4.8001991e+02 </wgt>
<wgt id='111'> +4.7003327e+02 </wgt>
<wgt id='112'> +4.5949723e+02 </wgt>
<wgt id='113'> +4.4968237e+02 </wgt>
<wgt id='114'> +4.7601232e+02 </wgt>
<wgt id='115'> +4.6273849e+02 </wgt>
<wgt id='116'> +4.9078089e+02 </wgt>
<wgt id='117'> +4.7857536e+02 </wgt>
<wgt id='118'> +4.9901914e+02 </wgt>
<wgt id='119'> +4.7107998e+02 </wgt>
<wgt id='120'> +4.7143654e+02 </wgt>
<wgt id='121'> +4.7414530e+02 </wgt>
<wgt id='122'> +4.7700996e+02 </wgt>
<wgt id='123'> +4.8317265e+02 </wgt>
<wgt id='124'> +5.2304951e+02 </wgt>
<wgt id='125'> +5.2750650e+02 </wgt>
<wgt id='126'> +4.9466761e+02 </wgt>
<wgt id='127'> +4.9273062e+02 </wgt>
<wgt id='128'> +4.4182871e+02 </wgt>
<wgt id='129'> +5.3640652e+02 </wgt>
<wgt id='130'> +4.7595063e+02 </wgt>
<wgt id='131'> +5.0316988e+02 </wgt>
<wgt id='132'> +4.9869343e+02 </wgt>
<wgt id='133'> +4.8921897e+02 </wgt>
<wgt id='134'> +4.6682200e+02 </wgt>
<wgt id='135'> +4.8906186e+02 </wgt>
<wgt id='136'> +4.8938068e+02 </wgt>
<wgt id='137'> +4.5950067e+02 </wgt>
<wgt id='138'> +4.4705213e+02 </wgt>
<wgt id='139'> +4.9406562e+02 </wgt>
<wgt id='140'> +4.9875468e+02 </wgt>
<wgt id='141'> +4.8612640e+02 </wgt>
<wgt id='142'> +4.6268605e+02 </wgt>
<wgt id='143'> +4.8854890e+02 </wgt>
<wgt id='144'> +4.7654198e+02 </wgt>
<wgt id='145'> +4.7897657e+02 </wgt>
</rwgt>
</event>
<event>
 8      1 +4.8159400e+02 2.28896900e+02 7.54677100e-03 1.12762700e-01
       21 -1    0    0  503  502 +0.0000000000e+00 +0.0000000000e+00 +5.7130873733e+02 5.7130873733e+02 0.0000000000e+00 0.0000e+00 -1.0000e+00
       21 -1    0    0  501  503 -0.0000000000e+00 -0.0000000000e+00 -1.8823717751e+02 1.8823717751e+02 0.0000000000e+00 0.0000e+00 -1.0000e+00
        6  2    1    2  501    0 +6.3839833050e+01 -1.3309297309e+02 -8.0842976836e+01 2.4275372031e+02 1.7494147036e+02 0.0000e+00 0.0000e+00
       -6  2    1    2    0  502 -6.3839833050e+01 +1.3309297309e+02 +4.6391453666e+02 5.1679219452e+02 1.7340187781e+02 0.0000e+00 0.0000e+00
        5  1    3    3  501    0 +1.1664932361e+01 -1.1493993646e+02 +6.5573487109e-01 1.1562776323e+02 4.7000000000e+00 0.0000e+00 -1.0000e+00
       24  1    3    3    0    0 +5.2174900689e+01 -1.8153036632e+01 -8.1498711707e+01 1.2712595709e+02 8.0419002446e+01 0.0000e+00 -1.0000e+00
       -5  1    4    4    0  502 -9.6584899458e+01 +5.7102139459e+01 +2.3336686319e+02 2.5898162091e+02 4.7000000000e+00 0.0000e+00 1.0000e+00
      -24  1    4    4    0    0 +3.2745066408e+01 +7.5990833632e+01 +2.3054767347e+02 2.5781057361e+02 8.0419002446e+01 0.0000e+00 0.0000e+00
<mgrwt>
<rscale>  2 0.22860268E+03</rscale>
<asrwt>0</asrwt>
<pdfrwt beam="1">  1       21 0.87893651E-01 0.22889688E+03</pdfrwt>
<pdfrwt beam="2">  1       21 0.28959566E-01 0.22889688E+03</pdfrwt>
<totfact> 0.12375120E+04</totfact>
</mgrwt>
<rwgt>
<wgt id='1'> +6.3623226e+02 </wgt>
<wgt id='2'> +5.1454457e+02 </wgt>
<wgt id='3'> +4.8854097e+02 </wgt>
<wgt id='4'> +6.4603658e+02 </wgt>
<wgt id='5'> +4.1965235e+02 </wgt>
<wgt id='6'> +5.8547970e+02 </wgt>
<wgt id='7'> +4.6889761e+02 </wgt>
<wgt id='8'> +4.4535039e+02 </wgt>
<wgt id='9'> +5.9510775e+02 </wgt>
<wgt id='10'> +3.8309525e+02 </wgt>
<wgt id='11'> +5.3381575e+02 </wgt>
<wgt id='12'> +4.2830835e+02 </wgt>
<wgt id='13'> +4.0700366e+02 </wgt>
<wgt id='14'> +5.4249589e+02 </wgt>
<wgt id='15'> +3.5065948e+02 </wgt>
<wgt id='16'> +5.2334118e+02 </wgt>
<wgt id='17'> +4.3322606e+02 </wgt>
<wgt id='18'> +4.1250381e+02 </wgt>
<wgt id='19'> +5.3034990e+02 </wgt>
<wgt id='20'> +3.5709718e+02 </wgt>
<wgt id='21'> +3.9479314e+02 </wgt>
<wgt id='22'> +3.7603547e+02 </wgt>
<wgt id='23'> +4.8854097e+02 </wgt>
<wgt id='24'> +3.2598944e+02 </wgt>
<wgt id='25'> +4.3909714e+02 </wgt>
<wgt id='26'> +3.6061859e+02 </wgt>
<wgt id='27'> +3.4365707e+02 </wgt>
<wgt id='28'> +4.4535039e+02 </wgt>
<wgt id='29'> +2.9838868e+02 </wgt>
<wgt id='30'> +4.4219230e+02 </wgt>
<wgt id='31'> +3.6976270e+02 </wgt>
<wgt id='32'> +3.5290865e+02 </wgt>
<wgt id='33'> +4.4780555e+02 </wgt>
<wgt id='34'> +3.0755409e+02 </wgt>
<wgt id='35'> +4.0691840e+02 </wgt>
<wgt id='36'> +3.3695983e+02 </wgt>
<wgt id='37'> +3.2170895e+02 </wgt>
<wgt id='38'> +4.1250381e+02 </wgt>
<wgt id='39'> +2.8076219e+02 </wgt>
<wgt id='40'> +3.7101107e+02 </wgt>
<wgt id='41'> +3.0779152e+02 </wgt>
<wgt id='42'> +2.9400832e+02 </wgt>
<wgt id='43'> +3.7603547e+02 </wgt>
<wgt id='44'> +2.5699071e+02 </wgt>
<wgt id='45'> +4.8159400e+02 </wgt>
<wgt id='46'> +4.9379801e+02 </wgt>
<wgt id='47'> +5.0219283e+02 </wgt>
<wgt id='48'> +4.8844357e+02 </wgt>
<wgt id='49'> +4.7532745e+02 </wgt>
<wgt id='50'> +5.9008702e+02 </wgt>
<wgt id='51'> +4.7013601e+02 </wgt>
<wgt id='52'> +4.8040706e+02 </wgt>
<wgt id='53'> +4.7675188e+02 </wgt>
<wgt id='54'> +4.8818897e+02 </wgt>
<wgt id='55'> +4.4332020e+02 </wgt>
<wgt id='56'> +4.3586571e+02 </wgt>
<wgt id='57'> +4.7708994e+02 </wgt>
<wgt id='58'> +4.7004253e+02 </wgt>
<wgt id='59'> +4.9509518e+02 </wgt>
<wgt id='60'> +4.7666986e+02 </wgt>
<wgt id='61'> +4.2757558e+02 </wgt>
<wgt id='62'> +4.7399725e+02 </wgt>
<wgt id='63'> +4.8339291e+02 </wgt>
<wgt id='64'> +4.6908245e+02 </wgt>
<wgt id='65'> +5.5092335e+02 </wgt>
<wgt id='66'> +4.7327011e+02 </wgt>
<wgt id='67'> +4.8500670e+02 </wgt>
<wgt id='68'> +5.3418443e+02 </wgt>
<wgt id='69'> +4.8550619e+02 </wgt>
<wgt id='70'> +4.7381856e+02 </wgt>
<wgt id='71'> +4.8713572e+02 </wgt>
<wgt id='72'> +4.5264111e+02 </wgt>
<wgt id='73'> +4.6569044e+02 </wgt>
<wgt id='74'> +5.1185227e+02 </wgt>
<wgt id='75'> +4.9555102e+02 </wgt>
<wgt id='76'> +4.7037076e+02 </wgt>
<wgt id='77'> +4.7123814e+02 </wgt>
<wgt id='78'> +4.6189694e+02 </wgt>
<wgt id='79'> +4.7374520e+02 </wgt>
<wgt id='80'> +4.6834580e+02 </wgt>
<wgt id='81'> +4.7024023e+02 </wgt>
<wgt id='82'> +4.7924328e+02 </wgt>
<wgt id='83'> +4.9314510e+02 </wgt>
<wgt id='84'> +5.2675117e+02 </wgt>
<wgt id='85'> +4.9702456e+02 </wgt>
<wgt id='86'> +4.8626000e+02 </wgt>
<wgt id='87'> +4.8544208e+02 </wgt>
<wgt id='88'> +4.8872111e+02 </wgt>
<wgt id='89'> +4.9097783e+02 </wgt>
<wgt id='90'> +4.9027564e+02 </wgt>
<wgt id='91'> +4.9868178e+02 </wgt>
<wgt id='92'> +4.2854506e+02 </wgt>
<wgt id='93'> +4.8010741e+02 </wgt>
<wgt id='94'> +4.6731750e+02 </wgt>
<wgt id='95'> +4.6711431e+02 </wgt>
<wgt id='96'> +5.2726303e+02 </wgt>
<wgt id='97'> +4.7726551e+02 </wgt>
<wgt id='98'> +4.6803525e+02 </wgt>
<wgt id='99'> +4.5649421e+02 </wgt>
<wgt id='100'> +4.4816625e+02 </wgt>
<wgt id='101'> +5.3490782e+02 </wgt>
<wgt id='102'> +4.9520425e+02 </wgt>
<wgt id='103'> +5.2519641e+02 </wgt>
<wgt id='104'> +4.8862346e+02 </wgt>
<wgt id='105'> +4.9445674e+02 </wgt>
<wgt id='106'> +4.3043727e+02 </wgt>
<wgt id='107'> +4.5569560e+02 </wgt>
<wgt id='108'> +4.1754957e+02 </wgt>
<wgt id='109'> +4.4676883e+02 </wgt>
<wgt id='110'> +4.7593285e+02 </wgt>
<wgt id='111'> +4.6495113e+02 </wgt>
<wgt id='112'> +4.5264816e+02 </wgt>
<wgt id='113'> +4.4005654e+02 </wgt>
<wgt id='114'> +4.6662414e+02 </wgt>
<wgt id='115'> +4.5845494e+02 </wgt>
<wgt id='116'> +5.0149105e+02 </wgt>
<wgt id='117'> +4.7811339e+02 </wgt>
<wgt id='118'> +5.0881980e+02 </wgt>
<wgt id='119'> +4.6473188e+02 </wgt>
<wgt id='120'> +4.6971947e+02 </wgt>
<wgt id='121'> +4.6698040e+02 </wgt>
<wgt id='122'> +4.7456365e+02 </wgt>
<wgt id='123'> +4.8851947e+02 </wgt>
<wgt id='124'> +5.3700167e+02 </wgt>
<wgt id='125'> +5.4051658e+02 </wgt>
<wgt id='126'> +5.0194171e+02 </wgt>
<wgt id='127'> +4.9752387e+02 </wgt>
<wgt id='128'> +4.3663180e+02 </wgt>
<wgt id='129'> +5.4564972e+02 </wgt>
<wgt id='130'> +4.8259328e+02 </wgt>
<wgt id='131'> +5.0636582e+02 </wgt>
<wgt id='132'> +4.9915846e+02 </wgt>
<wgt id='133'> +4.9532640e+02 </wgt>
<wgt id='134'> +4.6290331e+02 </wgt>
<wgt id='135'> +4.9001609e+02 </wgt>
<wgt id='136'> +4.8783166e+02 </wgt>
<wgt id='137'> +4.6155754e+02 </wgt>
<wgt id='138'> +4.5502559e+02 </wgt>
<wgt id='139'> +4.9740505e+02 </wgt>
<wgt id='140'> +4.9893378e+02 </wgt>
<wgt id='141'> +4.8973278e+02 </wgt>
<wgt id='142'> +4.5506070e+02 </wgt>
<wgt id='143'> +4.8808417e+02 </wgt>
<wgt id='144'> +4.6944929e+02 </wgt>
<wgt id='145'> +4.7945834e+02 </wgt>
</rwgt>
</event>
<event>
 8      1 +4.8159400e+02 1.78867300e+02 7.54677100e-03 1.16969400e-01
       21 -1    0    0  501  502 +0.0000000000e+00 +0.0000000000e+00 +1.8509955502e+02 1.8509955502e+02 0.0000000000e+00 0.0000e+00 1.0000e+00
       21 -1    0    0  502  503 -0.0000000000e+00 -0.0000000000e+00 -2.2255607832e+02 2.2255607832e+02 0.0000000000e+00 0.0000e+00 -1.0000e+00
       -6  2    1    2    0  503 -3.4385465548e+01 +2.0291927936e+01 -1.1787457849e+02 2.1154198967e+02 1.7105985666e+02 0.0000e+00 0.0000e+00
        6  2    1    2  501    0 +3.4385465548e+01 -2.0291927936e+01 +8.0418055182e+01 1.9611364367e+02 1.7435416557e+02 0.0000e+00 0.0000e+00
        5  1    4    4  501    0 +7.9289220897e+01 -2.8230379694e+01 +2.3349315369e+01 8.7470082979e+01 4.7000000000e+00 0.0000e+00 -1.0000e+00
       24  1    4    4    0    0 -4.4903755349e+01 +7.9384517579e+00 +5.7068739813e+01 1.0864356069e+02 8.0419002446e+01 0.0000e+00 0.0000e+00
       -5  1    3    3    0  503 -3.7728402540e+01 -5.2501155193e+01 -2.7898599991e+01 7.0570713021e+01 4.7000000000e+00 0.0000e+00 1.0000e+00
      -24  1    3    3    0    0 +3.3429369916e+00 +7.2793083129e+01 -8.9975978497e+01 1.4097127665e+02 8.0419002446e+01 0.0000e+00 1.0000e+00
<mgrwt>
<rscale>  2 0.17805939E+03</rscale>
<asrwt>0</asrwt>
<pdfrwt beam="1">  1       21 0.28476855E-01 0.17886726E+03</pdfrwt>
<pdfrwt beam="2">  1       21 0.34239397E-01 0.17886726E+03</pdfrwt>
<totfact> 0.97432582E+04</totfact>
</mgrwt>
<rwgt>
<wgt id='1'> +6.1573940e+02 </wgt>
<wgt id='2'> +5.0791442e+02 </wgt>
<wgt id='3'> +4.8458422e+02 </wgt>
<wgt id='4'> +6.1974502e+02 </wgt>
<wgt id='5'> +4.6067204e+02 </wgt>
<wgt id='6'> +5.9315831e+02 </wgt>
<wgt id='7'> +4.8126419e+02 </wgt>
<wgt id='8'> +4.5787615e+02 </wgt>
<wgt id='9'> +5.9732328e+02 </wgt>
<wgt id='10'> +4.3467061e+02 </wgt>
<wgt id='11'> +5.6029700e+02 </wgt>
<wgt id='12'> +4.5385824e+02 </wgt>
<wgt id='13'> +4.3173999e+02 </wgt>
<wgt id='14'> +5.6440155e+02 </wgt>
<wgt id='15'> +4.0981300e+02 </wgt>
<wgt id='16'> +4.9992793e+02 </wgt>
<wgt id='17'> +4.2404517e+02 </wgt>
<wgt id='18'> +4.0677706e+02 </wgt>
<wgt id='19'> +5.0277407e+02 </wgt>
<wgt id='20'> +3.8834183e+02 </wgt>
<wgt id='21'> +4.0179556e+02 </wgt>
<wgt id='22'> +3.8435737e+02 </wgt>
<wgt id='23'> +4.8458422e+02 </wgt>
<wgt id='24'> +3.6642289e+02 </wgt>
<wgt id='25'> +4.5491342e+02 </wgt>
<wgt id='26'> +3.7891501e+02 </wgt>
<wgt id='27'> +3.6241775e+02 </wgt>
<wgt id='28'> +4.5787615e+02 </wgt>
<wgt id='29'> +3.4546818e+02 </wgt>
<wgt id='30'> +4.1989486e+02 </wgt>
<wgt id='31'> +3.6035419e+02 </wgt>
<wgt id='32'> +3.4656575e+02 </wgt>
<wgt id='33'> +4.2204627e+02 </wgt>
<wgt id='34'> +3.3175104e+02 </wgt>
<wgt id='35'> +4.0449600e+02 </wgt>
<wgt id='36'> +3.4144644e+02 </wgt>
<wgt id='37'> +3.2746462e+02 </wgt>
<wgt id='38'> +4.0677706e+02 </wgt>
<wgt id='39'> +3.1302622e+02 </wgt>
<wgt id='40'> +3.8208669e+02 </wgt>
<wgt id='41'> +3.2200251e+02 </wgt>
<wgt id='42'> +3.0877252e+02 </wgt>
<wgt id='43'> +3.8435737e+02 </wgt>
<wgt id='44'> +2.9512512e+02 </wgt>
<wgt id='45'> +4.8159400e+02 </wgt>
<wgt id='46'> +4.7826463e+02 </wgt>
<wgt id='47'> +4.9740095e+02 </wgt>
<wgt id='48'> +4.8112448e+02 </wgt>
<wgt id='49'> +4.8118263e+02 </wgt>
<wgt id='50'> +5.5428197e+02 </wgt>
<wgt id='51'> +4.7234567e+02 </wgt>
<wgt id='52'> +4.7787547e+02 </wgt>
<wgt id='53'> +4.9050508e+02 </wgt>
<wgt id='54'> +4.8424550e+02 </wgt>
<wgt id='55'> +4.2918702e+02 </wgt>
<wgt id='56'> +4.5159931e+02 </wgt>
<wgt id='57'> +4.6779141e+02 </wgt>
<wgt id='58'> +4.8806548e+02 </wgt>
<wgt id='59'> +4.6979075e+02 </wgt>
<wgt id='60'> +4.5761689e+02 </wgt>
<wgt id='61'> +4.7749958e+02 </wgt>
<wgt id='62'> +4.7484801e+02 </wgt>
<wgt id='63'> +4.8198307e+02 </wgt>
<wgt id='64'> +4.8030473e+02 </wgt>
<wgt id='65'> +5.7119411e+02 </wgt>
<wgt id='66'> +4.6933102e+02 </wgt>
<wgt id='67'> +4.8602511e+02 </wgt>
<wgt id='68'> +5.1166396e+02 </wgt>
<wgt id='69'> +4.6582380e+02 </wgt>
<wgt id='70'> +4.7401635e+02 </wgt>
<wgt id='71'> +4.9101859e+02 </wgt>
<wgt id='72'> +4.7326448e+02 </wgt>
<wgt id='73'> +4.7700479e+02 </wgt>
<wgt id='74'> +4.9214179e+02 </wgt>
<wgt id='75'> +4.9159552e+02 </wgt>
<wgt id='76'> +4.6763713e+02 </wgt>
<wgt id='77'> +4.6143832e+02 </wgt>
<wgt id='78'> +4.8651985e+02 </wgt>
<wgt id='79'> +4.5912543e+02 </wgt>
<wgt id='80'> +4.7904019e+02 </wgt>
<wgt id='81'> +4.7381037e+02 </wgt>
<wgt id='82'> +4.9763166e+02 </wgt>
<wgt id='83'> +4.9053039e+02 </wgt>
<wgt id='84'> +5.2846491e+02 </wgt>
<wgt id='85'> +5.0805288e+02 </wgt>
<wgt id='86'> +4.7641850e+02 </wgt>
<wgt id='87'> +4.8031298e+02 </wgt>
<wgt id='88'> +4.8958528e+02 </wgt>
<wgt id='89'> +4.9183333e+02 </wgt>
<wgt id='90'> +4.8546196e+02 </wgt>
<wgt id='91'> +5.1457057e+02 </wgt>
<wgt id='92'> +4.4797953e+02 </wgt>
<wgt id='93'> +4.7129947e+02 </wgt>
<wgt id='94'> +4.8162569e+02 </wgt>
<wgt id='95'> +4.6227139e+02 </wgt>
<wgt id='96'> +5.1721350e+02 </wgt>
<wgt id='97'> +4.9158441e+02 </wgt>
<wgt id='98'> +4.5791498e+02 </wgt>
<wgt id='99'> +4.6929058e+02 </wgt>
<wgt id='100'> +4.8434121e+02 </wgt>
<wgt id='101'> +4.9848838e+02 </wgt>
<wgt id='102'> +4.6103046e+02 </wgt>
<wgt id='103'> +5.2096858e+02 </wgt>
<wgt id='104'> +4.7913581e+02 </wgt>
<wgt id='105'> +5.0289046e+02 </wgt>
<wgt id='106'> +4.4774576e+02 </wgt>
<wgt id='107'> +4.8157509e+02 </wgt>
<wgt id='108'> +4.3645723e+02 </wgt>
<wgt id='109'> +4.5522070e+02 </wgt>
<wgt id='110'> +4.8366040e+02 </wgt>
<wgt id='111'> +4.7073804e+02 </wgt>
<wgt id='112'> +4.6267281e+02 </wgt>
<wgt id='113'> +4.4403221e+02 </wgt>
<wgt id='114'> +4.8621886e+02 </wgt>
<wgt id='115'> +4.8992516e+02 </wgt>
<wgt id='116'> +4.7594584e+02 </wgt>
<wgt id='117'> +4.9084755e+02 </wgt>
<wgt id='118'> +4.8918257e+02 </wgt>
<wgt id='119'> +4.6387042e+02 </wgt>
<wgt id='120'> +4.8442326e+02 </wgt>
<wgt id='121'> +4.6919234e+02 </wgt>
<wgt id='122'> +4.7582314e+02 </wgt>
<wgt id='123'> +4.8708443e+02 </wgt>
<wgt id='124'> +5.0817108e+02 </wgt>
<wgt id='125'> +5.0970787e+02 </wgt>
<wgt id='126'> +4.9873940e+02 </wgt>
<wgt id='127'> +4.9447754e+02 </wgt>
<wgt id='128'> +4.5059754e+02 </wgt>
<wgt id='129'> +5.4432418e+02 </wgt>
<wgt id='130'> +4.8525607e+02 </wgt>
<wgt id='131'> +5.1708733e+02 </wgt>
<wgt id='132'> +4.7108525e+02 </wgt>
<wgt id='133'> +4.7409975e+02 </wgt>
<wgt id='134'> +4.5106023e+02 </wgt>
<wgt id='135'> +4.9440814e+02 </wgt>
<wgt id='136'> +4.5690566e+02 </wgt>
<wgt id='137'> +4.5177362e+02 </wgt>
<wgt id='138'> +4.3352325e+02 </wgt>
<wgt id='139'> +4.8885330e+02 </wgt>
<wgt id='140'> +5.1510304e+02 </wgt>
<wgt id='141'> +4.7946603e+02 </wgt>
<wgt id='142'> +4.9074739e+02 </wgt>
<wgt id='143'> +4.7448146e+02 </wgt>
<wgt id='144'> +4.8381222e+02 </wgt>
<wgt id='145'> +4.8270068e+02 </wgt>
</rwgt>
</event>
<event>
 8      1 +4.8159400e+02 3.76911100e+02 7.54677100e-03 1.05212300e-01
       21 -1    0    0  503  502 +0.0000000000e+00 +0.0000000000e+00 +5.9194383765e+02 5.9194383765e+02 0.0000000000e+00 0.0000e+00 1.0000e+00
       21 -1    0    0  501  503 -0.0000000000e+00 -0.0000000000e+00 -2.6925798550e+02 2.6925798550e+02 0.0000000000e+00 0.0000e+00 -1.0000e+00
        6  2    1    2  501    0 -2.6673206001e+02 -2.0309537206e+02 +1.8617849803e+01 3.7692985485e+02 1.7127687866e+02 0.0000e+00 0.0000e+00
       -6  2    1    2    0  502 +2.6673206001e+02 +2.0309537206e+02 +3.0406800235e+02 4.8427196830e+02 1.7224478871e+02 0.0000e+00 0.0000e+00
        5  1    3    3  501    0 -1.6949047710e+02 -1.7942869406e+02 -2.1298038576e+00 2.4687710332e+02 4.7000000000e+00 0.0000e+00 -1.0000e+00
       24  1    3    3    0    0 -9.7241582912e+01 -2.3666677990e+01 +2.0747653660e+01 1.3005275153e+02 8.0419002446e+01 0.0000e+00 -1.0000e+00
       -5  1    4    4    0  502 +1.9286280707e+02 +1.3703832257e+02 +1.3498380580e+02 2.7243032509e+02 4.7000000000e+00 0.0000e+00 1.0000e+00
      -24  1    4    4    0    0 +7.3869252938e+01 +6.6057049490e+01 +1.6908419655e+02 2.1184164320e+02 8.0419002446e+01 0.0000e+00 1.0000e+00
<mgrwt>
<rscale>  2 0.37680073E+03</rscale>
<asrwt>0</asrwt>
<pdfrwt beam="1">  1       21 0.91068282E-01 0.37691112E+03</pdfrwt>
<pdfrwt beam="2">  1       21 0.41424306E-01 0.37691112E+03</pdfrwt>
<totfact> 0.51782777E+03</totfact>
</mgrwt>
<rwgt>
<wgt id='1'> +6.3636020e+02 </wgt>
<wgt id='2'> +4.9079926e+02 </wgt>
<wgt id='3'> +4.8516578e+02 </wgt>
<wgt id='4'> +6.4140187e+02 </wgt>
<wgt id='5'> +4.7093184e+02 </wgt>
<wgt id='6'> +5.7239391e+02 </wgt>
<wgt id='7'> +4.4289966e+02 </wgt>
<wgt id='8'> +4.3788658e+02 </wgt>
<wgt id='9'> +5.7696067e+02 </wgt>
<wgt id='10'> +4.2521853e+02 </wgt>
<wgt id='11'> +5.1666847e+02 </wgt>
<wgt id='12'> +4.0121152e+02 </wgt>
<wgt id='13'> +3.9673583e+02 </wgt>
<wgt id='14'> +5.2073610e+02 </wgt>
<wgt id='15'> +3.8542251e+02 </wgt>
<wgt id='16'> +5.3541320e+02 </wgt>
<wgt id='17'> +4.1834402e+02 </wgt>
<wgt id='18'> +4.1376551e+02 </wgt>
<wgt id='19'> +5.3935433e+02 </wgt>
<wgt id='20'> +4.0218494e+02 </wgt>
<wgt id='21'> +3.7751570e+02 </wgt>
<wgt id='22'> +3.7344423e+02 </wgt>
<wgt id='23'> +4.8516578e+02 </wgt>
<wgt id='24'> +3.6314488e+02 </wgt>
<wgt id='25'> +4.3470839e+02 </wgt>
<wgt id='26'> +3.4198186e+02 </wgt>
<wgt id='27'> +3.3834951e+02 </wgt>
<wgt id='28'> +4.3788658e+02 </wgt>
<wgt id='29'> +3.2915831e+02 </wgt>
<wgt id='30'> +4.5677487e+02 </wgt>
<wgt id='31'> +3.6082432e+02 </wgt>
<wgt id='32'> +3.5704232e+02 </wgt>
<wgt id='33'> +4.5997931e+02 </wgt>
<wgt id='34'> +3.4746221e+02 </wgt>
<wgt id='35'> +4.1086032e+02 </wgt>
<wgt id='36'> +3.2560964e+02 </wgt>
<wgt id='37'> +3.2224870e+02 </wgt>
<wgt id='38'> +4.1376551e+02 </wgt>
<wgt id='39'> +3.1373408e+02 </wgt>
<wgt id='40'> +3.7086099e+02 </wgt>
<wgt id='41'> +2.9496148e+02 </wgt>
<wgt id='42'> +2.9196512e+02 </wgt>
<wgt id='43'> +3.7344423e+02 </wgt>
<wgt id='44'> +2.8437185e+02 </wgt>
<wgt id='45'> +4.8159400e+02 </wgt>
<wgt id='46'> +4.9928423e+02 </wgt>
<wgt id='47'> +5.0469625e+02 </wgt>
<wgt id='48'> +4.9133646e+02 </wgt>
<wgt id='49'> +4.7292493e+02 </wgt>
<wgt id='50'> +6.0105998e+02 </wgt>
<wgt id='51'> +4.6966290e+02 </wgt>
<wgt id='52'> +4.7976575e+02 </wgt>
<wgt id='53'> +4.7286330e+02 </wgt>
<wgt id='54'> +4.8953819e+02 </wgt>
<wgt id='55'> +4.4961802e+02 </wgt>
<wgt id='56'> +4.3275671e+02 </wgt>
<wgt id='57'> +4.7960989e+02 </wgt>
<wgt id='58'> +4.6276966e+02 </wgt>
<wgt id='59'> +5.0304575e+02 </wgt>
<wgt id='60'> +4.8277833e+02 </wgt>
<wgt id='61'> +4.1717292e+02 </wgt>
<wgt id='62'> +4.7358548e+02 </wgt>
<wgt id='63'> +4.8449551e+02 </wgt>
<wgt id='64'> +4.6503121e+02 </wgt>
<wgt id='65'> +5.4104236e+02 </wgt>
<wgt id='66'> +4.7620417e+02 </wgt>
<wgt id='67'> +4.8478911e+02 </wgt>
<wgt id='68'> +5.4214438e+02 </wgt>
<wgt id='69'> +4.9516059e+02 </wgt>
<wgt id='70'> +4.7547293e+02 </wgt>
<wgt id='71'> +4.8486796e+02 </wgt>
<wgt id='72'> +4.4346306e+02 </wgt>
<wgt id='73'> +4.6113432e+02 </wgt>
<wgt id='74'> +5.1926826e+02 </wgt>
<wgt id='75'> +4.9779281e+02 </wgt>
<wgt id='76'> +4.7123054e+02 </wgt>
<wgt id='77'> +4.7436258e+02 </wgt>
<wgt id='78'> +4.5340434e+02 </wgt>
<wgt id='79'> +4.8026893e+02 </wgt>
<wgt id='80'> +4.6450314e+02 </wgt>
<wgt id='81'> +4.6998835e+02 </wgt>
<wgt id='82'> +4.7417528e+02 </wgt>
<wgt id='83'> +4.9459992e+02 </wgt>
<wgt id='84'> +5.2496313e+02 </wgt>
<wgt id='85'> +4.9196858e+02 </wgt>
<wgt id='86'> +4.9088151e+02 </wgt>
<wgt id='87'> +4.8668054e+02 </wgt>
<wgt id='88'> +4.8937999e+02 </wgt>
<wgt id='89'> +4.8810584e+02 </wgt>
<wgt id='90'> +4.8990757e+02 </wgt>
<wgt id='91'> +4.9192074e+02 </wgt>
<wgt id='92'> +4.2209848e+02 </wgt>
<wgt id='93'> +4.8370619e+02 </wgt>
<wgt id='94'> +4.6186456e+02 </wgt>
<wgt id='95'> +4.6793468e+02 </wgt>
<wgt id='96'> +5.3099234e+02 </wgt>
<wgt id='97'> +4.7158902e+02 </wgt>
<wgt id='98'> +4.7340135e+02 </wgt>
<wgt id='99'> +4.5139837e+02 </wgt>
<wgt id='100'> +4.3527290e+02 </wgt>
<wgt id='101'> +5.4734294e+02 </wgt>
<wgt id='102'> +5.0862004e+02 </wgt>
<wgt id='103'> +5.2376241e+02 </wgt>
<wgt id='104'> +4.9378797e+02 </wgt>
<wgt id='105'> +4.8996124e+02 </wgt>
<wgt id='106'> +4.2549858e+02 </wgt>
<wgt id='107'> +4.4744550e+02 </wgt>
<wgt id='108'> +4.1342784e+02 </wgt>
<wgt id='109'> +4.4436717e+02 </wgt>
<wgt id='110'> +4.7182471e+02 </wgt>
<wgt id='111'> +4.6279843e+02 </wgt>
<wgt id='112'> +4.5118351e+02 </wgt>
<wgt id='113'> +4.4072698e+02 </wgt>
<wgt id='114'> +4.5961334e+02 </wgt>
<wgt id='115'> +4.4931079e+02 </wgt>
<wgt id='116'> +5.1167822e+02 </wgt>
<wgt id='117'> +4.7409227e+02 </wgt>
<wgt id='118'> +5.1500446e+02 </wgt>
<wgt id='119'> +4.6578917e+02 </wgt>
<wgt id='120'> +4.6531173e+02 </wgt>
<wgt id='121'> +4.6518481e+02 </wgt>
<wgt id='122'> +4.7354494e+02 </wgt>
<wgt id='123'> +4.8903270e+02 </wgt>
<wgt id='124'> +5.4578287e+02 </wgt>
<wgt id='125'> +5.5130920e+02 </wgt>
<wgt id='126'> +5.0276431e+02 </wgt>
<wgt id='127'> +4.9737735e+02 </wgt>
<wgt id='128'> +4.3502591e+02 </wgt>
<wgt id='129'> +5.4257205e+02 </wgt>
<wgt id='130'> +4.8341887e+02 </wgt>
<wgt id='131'> +5.0069889e+02 </wgt>
<wgt id='132'> +5.0713267e+02 </wgt>
<wgt id='133'> +5.0316760e+02 </wgt>
<wgt id='134'> +4.6815969e+02 </wgt>
<wgt id='135'> +4.8742047e+02 </wgt>
<wgt id='136'> +4.9810408e+02 </wgt>
<wgt id='137'> +4.6786614e+02 </wgt>
<wgt id='138'> +4.6695482e+02 </wgt>
<wgt id='139'> +4.9962069e+02 </wgt>
<wgt id='140'> +4.9222159e+02 </wgt>
<wgt id='141'> +4.9498896e+02 </wgt>
<wgt id='142'> +4.4250850e+02 </wgt>
<wgt id='143'> +4.9207442e+02 </wgt>
<wgt id='144'> +4.6350052e+02 </wgt>
<wgt id='145'> +4.7778864e+02 </wgt>
</rwgt>
</event>
<event>
 8      1 +4.8159400e+02 3.46805200e+02 7.54677100e-03 1.06470100e-01
       21 -1    0    0  503  502 +0.0000000000e+00 +0.0000000000e+00 +1.2991819356e+02 1.2991819356e+02 0.0000000000e+00 0.0000e+00 1.0000e+00
       21 -1    0    0  501  503 -0.0000000000e+00 -0.0000000000e+00 -1.2901672857e+03 1.2901672857e+03 0.0000000000e+00 0.0000e+00 -1.0000e+00
        6  2    1    2  501    0 +2.4136053930e+02 -1.7656290426e+02 -9.7171660907e+02 1.0317495053e+03 1.7562603526e+02 0.0000e+00 0.0000e+00
       -6  2    1    2    0  502 -2.4136053930e+02 +1.7656290426e+02 -1.8853248303e+02 3.8833597392e+02 1.6072013685e+02 0.0000e+00 0.0000e+00
        5  1    3    3  501    0 -1.4353343850e+01 +1.1701049343e+01 -4.7361574836e+01 5.1069969712e+01 4.7000000000e+00 0.0000e+00 -1.0000e+00
       24  1    3    3    0    0 +2.5571388315e+02 -1.8826395361e+02 -9.2435503424e+02 9.8067953560e+02 8.0419002446e+01 0.0000e+00 0.0000e+00
       -5  1    4    4    0  502 -1.3918663947e+02 +5.9688829861e+01 -1.4143347888e+02 2.0727082757e+02 4.7000000000e+00 0.0000e+00 1.0000e+00
      -24  1    4    4    0    0 -1.0217389983e+02 +1.1687407440e+02 -4.7099004157e+01 1.8106514635e+02 8.0419002446e+01 0.0000e+00 1.0000e+00
<mgrwt>
<rscale>  2 0.34496435E+03</rscale>
<asrwt>0</asrwt>
<pdfrwt beam="1">  1       21 0.19987415E-01 0.34680524E+03</pdfrwt>
<pdfrwt beam="2">  1       21 0.19848727E+00 0.34680524E+03</pdfrwt>
<totfact> 0.28342155E+03</totfact>
</mgrwt>
<rwgt>
<wgt id='1'> +6.5556114e+02 </wgt>
<wgt id='2'> +4.9075460e+02 </wgt>
<wgt id='3'> +4.8725795e+02 </wgt>
<wgt id='4'> +6.6374910e+02 </wgt>
<wgt id='5'> +4.4811407e+02 </wgt>
<wgt id='6'> +5.7400261e+02 </wgt>
<wgt id='7'> +4.3160486e+02 </wgt>
<wgt id='8'> +4.2859043e+02 </wgt>
<wgt id='9'> +5.8127135e+02 </wgt>
<wgt id='10'> +3.9481753e+02 </wgt>
<wgt id='11'> +5.0502099e+02 </wgt>
<wgt id='12'> +3.8182274e+02 </wgt>
<wgt id='13'> +3.7920880e+02 </wgt>
<wgt id='14'> +5.1128429e+02 </wgt>
<wgt id='15'> +3.4990206e+02 </wgt>
<wgt id='16'> +5.5002243e+02 </wgt>
<wgt id='17'> +4.1767342e+02 </wgt>
<wgt id='18'> +4.1482690e+02 </wgt>
<wgt id='19'> +5.5639595e+02 </wgt>
<wgt id='20'> +3.8287189e+02 </wgt>
<wgt id='21'> +3.6733202e+02 </wgt>
<wgt id='22'> +3.6488033e+02 </wgt>
<wgt id='23'> +4.8725795e+02 </wgt>
<wgt id='24'> +3.3733494e+02 </wgt>
<wgt id='25'> +4.2371773e+02 </wgt>
<wgt id='26'> +3.2496325e+02 </wgt>
<wgt id='27'> +3.2283929e+02 </wgt>
<wgt id='28'> +4.2859043e+02 </wgt>
<wgt id='29'> +2.9895884e+02 </wgt>
<wgt id='30'> +4.6847943e+02 </wgt>
<wgt id='31'> +3.5977940e+02 </wgt>
<wgt id='32'> +3.5742225e+02 </wgt>
<wgt id='33'> +4.7368752e+02 </wgt>
<wgt id='34'> +3.3090501e+02 </wgt>
<wgt id='35'> +4.1019578e+02 </wgt>
<wgt id='36'> +3.1641587e+02 </wgt>
<wgt id='37'> +3.1438739e+02 </wgt>
<wgt id='38'> +4.1482690e+02 </wgt>
<wgt id='39'> +2.9154875e+02 </wgt>
<wgt id='40'> +3.6089989e+02 </wgt>
<wgt id='41'> +2.7991986e+02 </wgt>
<wgt id='42'> +2.7816408e+02 </wgt>
<wgt id='43'> +3.6488033e+02 </wgt>
<wgt id='44'> +2.5838141e+02 </wgt>
<wgt id='45'> +4.8159400e+02 </wgt>
<wgt id='46'> +4.9707484e+02 </wgt>
<wgt id='47'> +5.1019672e+02 </wgt>
<wgt id='48'> +4.8400735e+02 </wgt>
<wgt id='49'> +4.4323862e+02 </wgt>
<wgt id='50'> +5.8641256e+02 </wgt>
<wgt id='51'> +4.5359662e+02 </wgt>
<wgt id='52'> +4.4587424e+02 </wgt>
<wgt id='53'> +4.8779806e+02 </wgt>
<wgt id='54'> +5.1074461e+02 </wgt>
<wgt id='55'> +5.2905178e+02 </wgt>
<wgt id='56'> +4.5447086e+02 </wgt>
<wgt id='57'> +5.0736679e+02 </wgt>
<wgt id='58'> +4.3111297e+02 </wgt>
<wgt id='59'> +5.2036111e+02 </wgt>
<wgt id='60'> +4.7464525e+02 </wgt>
<wgt id='61'> +4.1454655e+02 </wgt>
<wgt id='62'> +4.4306224e+02 </wgt>
<wgt id='63'> +5.0687276e+02 </wgt>
<wgt id='64'> +4.7773005e+02 </wgt>
<wgt id='65'> +4.5377142e+02 </wgt>
<wgt id='66'> +4.8904833e+02 </wgt>
<wgt id='67'> +4.8511448e+02 </wgt>
<wgt id='68'> +5.9631315e+02 </wgt>
<wgt id='69'> +5.3164117e+02 </wgt>
<wgt id='70'> +5.2299371e+02 </wgt>
<wgt id='71'> +4.4851033e+02 </wgt>
<wgt id='72'> +4.2828055e+02 </wgt>
<wgt id='73'> +4.3256929e+02 </wgt>
<wgt id='74'> +5.6089155e+02 </wgt>
<wgt id='75'> +5.3177987e+02 </wgt>
<wgt id='76'> +4.9073399e+02 </wgt>
<wgt id='77'> +4.5182810e+02 </wgt>
<wgt id='78'> +4.1421560e+02 </wgt>
<wgt id='79'> +5.1491117e+02 </wgt>
<wgt id='80'> +4.2436923e+02 </wgt>
<wgt id='81'> +4.9798581e+02 </wgt>
<wgt id='82'> +4.7519547e+02 </wgt>
<wgt id='83'> +4.8253467e+02 </wgt>
<wgt id='84'> +4.7927655e+02 </wgt>
<wgt id='85'> +4.3866453e+02 </wgt>
<wgt id='86'> +5.1042899e+02 </wgt>
<wgt id='87'> +4.7409704e+02 </wgt>
<wgt id='88'> +4.7915342e+02 </wgt>
<wgt id='89'> +4.0738049e+02 </wgt>
<wgt id='90'> +4.4604120e+02 </wgt>
<wgt id='91'> +4.2256436e+02 </wgt>
<wgt id='92'> +4.3948612e+02 </wgt>
<wgt id='93'> +4.8838542e+02 </wgt>
<wgt id='94'> +4.3932552e+02 </wgt>
<wgt id='95'> +4.9787314e+02 </wgt>
<wgt id='96'> +5.1504170e+02 </wgt>
<wgt id='97'> +4.3601952e+02 </wgt>
<wgt id='98'> +5.2041106e+02 </wgt>
<wgt id='99'> +4.0131156e+02 </wgt>
<wgt id='100'> +3.6367104e+02 </wgt>
<wgt id='101'> +5.6868907e+02 </wgt>
<wgt id='102'> +5.4526520e+02 </wgt>
<wgt id='103'> +4.6382393e+02 </wgt>
<wgt id='104'> +5.2187409e+02 </wgt>
<wgt id='105'> +4.9060723e+02 </wgt>
<wgt id='106'> +4.5831107e+02 </wgt>
<wgt id='107'> +4.6223578e+02 </wgt>
<wgt id='108'> +4.4076865e+02 </wgt>
<wgt id='109'> +4.6845521e+02 </wgt>
<wgt id='110'> +4.3738800e+02 </wgt>
<wgt id='111'> +4.6393897e+02 </wgt>
<wgt id='112'> +4.9511543e+02 </wgt>
<wgt id='113'> +5.0154276e+02 </wgt>
<wgt id='114'> +4.9133017e+02 </wgt>
<wgt id='115'> +4.4530747e+02 </wgt>
<wgt id='116'> +5.3542891e+02 </wgt>
<wgt id='117'> +4.7452503e+02 </wgt>
<wgt id='118'> +4.9987702e+02 </wgt>
<wgt id='119'> +5.2056696e+02 </wgt>
<wgt id='120'> +4.8105298e+02 </wgt>
<wgt id='121'> +4.6555228e+02 </wgt>
<wgt id='122'> +4.6815093e+02 </wgt>
<wgt id='123'> +4.6211932e+02 </wgt>
<wgt id='124'> +5.4972982e+02 </wgt>
<wgt id='125'> +6.1495549e+02 </wgt>
<wgt id='126'> +4.7594030e+02 </wgt>
<wgt id='127'> +4.6262246e+02 </wgt>
<wgt id='128'> +4.6376273e+02 </wgt>
<wgt id='129'> +4.9640674e+02 </wgt>
<wgt id='130'> +4.8066576e+02 </wgt>
<wgt id='131'> +4.4557213e+02 </wgt>
<wgt id='132'> +5.2156357e+02 </wgt>
<wgt id='133'> +5.2717762e+02 </wgt>
<wgt id='134'> +5.0284074e+02 </wgt>
<wgt id='135'> +4.6148633e+02 </wgt>
<wgt id='136'> +5.6134017e+02 </wgt>
<wgt id='137'> +5.1007697e+02 </wgt>
<wgt id='138'> +4.9985746e+02 </wgt>
<wgt id='139'> +4.9769147e+02 </wgt>
<wgt id='140'> +4.7156310e+02 </wgt>
<wgt id='141'> +5.5323742e+02 </wgt>
<wgt id='142'> +3.3535796e+02 </wgt>
<wgt id='143'> +4.9098686e+02 </wgt>
<wgt id='144'> +4.3340613e+02 </wgt>
<wgt id='145'> +4.4549190e+02 </wgt>
</rwgt>
</event>
<event>
 8      1 +4.8159400e+02 2.03139600e+02 7.54677100e-03 1.14733000e-01
       21 -1    0    0  503  502 +0.0000000000e+00 +0.0000000000e+00 +2.5846012954e+02 2.5846012954e+02 0.0000000000e+00 0.0000e+00 1.0000e+00
       21 -1    0    0  501  503 -0.0000000000e+00 -0.0000000000e+00 -1.6436632765e+02 1.6436632765e+02 0.0000000000e+00 0.0000e+00 -1.0000e+00
        6  2    1    2  501    0 -7.9610810425e+00 -1.0564213841e+02 +8.4412794399e+00 2.0331489636e+02 1.7332643094e+02 0.0000e+00 0.0000e+00
       -6  2    1    2    0  502 +7.9610810425e+00 +1.0564213841e+02 +8.5652522452e+01 2.1951156083e+02 1.7212010491e+02 0.0000e+00 0.0000e+00
        5  1    3    3  501    0 +3.3924435195e+01 -2.4607875134e+01 +5.8241119807e+01 7.1906417365e+01 4.7000000000e+00 0.0000e+00 -1.0000e+00
       24  1    3    3    0    0 -4.1885516237e+01 -8.1034263278e+01 -4.9799840368e+01 1.3140847899e+02 8.0419002446e+01 0.0000e+00 -1.0000e+00
       -5  1    4    4    0  502 +4.8691620543e+01 +2.2299015193e+01 +8.0288425034e+01 9.6625261625e+01 4.7000000000e+00 0.0000e+00 1.0000e+00
      -24  1    4    4    0    0 -4.0730539500e+01 +8.3343123219e+01 +5.3640974177e+00 1.2288629920e+02 8.0419002446e+01 0.0000e+00 0.0000e+00
<mgrwt>
<rscale>  2 0.20288202E+03</rscale>
<asrwt>0</asrwt>
<pdfrwt beam="1">  1       21 0.39763097E-01 0.20313959E+03</pdfrwt>
<pdfrwt beam="2">  1       21 0.25287127E-01 0.20313959E+03</pdfrwt>
<totfact> 0.89952460E+04</totfact>
</mgrwt>
<rwgt>
<wgt id='1'> +6.1479220e+02 </wgt>
<wgt id='2'> +5.1522865e+02 </wgt>
<wgt id='3'> +5.1170204e+02 </wgt>
<wgt id='4'> +6.5571701e+02 </wgt>
<wgt id='5'> +4.7905509e+02 </wgt>
<wgt id='6'> +5.8938799e+02 </wgt>
<wgt id='7'> +4.8664044e+02 </wgt>
<wgt id='8'> +4.8314225e+02 </wgt>
<wgt id='9'> +6.3154535e+02 </wgt>
<wgt id='10'> +4.5147834e+02 </wgt>
<wgt id='11'> +5.5547890e+02 </wgt>
<wgt id='12'> +4.5839341e+02 </wgt>
<wgt id='13'> +4.5509058e+02 </wgt>
<wgt id='14'> +5.9629671e+02 </wgt>
<wgt id='15'> +4.2521422e+02 </wgt>
<wgt id='16'> +5.0235200e+02 </wgt>
<wgt id='17'> +4.3175830e+02 </wgt>
<wgt id='18'> +4.2911636e+02 </wgt>
<wgt id='19'> +5.3128684e+02 </wgt>
<wgt id='20'> +4.0397087e+02 </wgt>
<wgt id='21'> +4.0780156e+02 </wgt>
<wgt id='22'> +4.0516595e+02 </wgt>
<wgt id='23'> +5.1170204e+02 </wgt>
<wgt id='24'> +3.8071634e+02 </wgt>
<wgt id='25'> +4.5388660e+02 </wgt>
<wgt id='26'> +3.8413073e+02 </wgt>
<wgt id='27'> +3.8164166e+02 </wgt>
<wgt id='28'> +4.8314225e+02 </wgt>
<wgt id='29'> +3.5856870e+02 </wgt>
<wgt id='30'> +4.2347378e+02 </wgt>
<wgt id='31'> +3.6751796e+02 </wgt>
<wgt id='32'> +3.6540520e+02 </wgt>
<wgt id='33'> +4.4554029e+02 </wgt>
<wgt id='34'> +3.4519815e+02 </wgt>
<wgt id='35'> +4.0597515e+02 </wgt>
<wgt id='36'> +3.4712569e+02 </wgt>
<wgt id='37'> +3.4501072e+02 </wgt>
<wgt id='38'> +4.2911636e+02 </wgt>
<wgt id='39'> +3.2532686e+02 </wgt>
<wgt id='40'> +3.8261831e+02 </wgt>
<wgt id='41'> +3.2697679e+02 </wgt>
<wgt id='42'> +3.2497909e+02 </wgt>
<wgt id='43'> +4.0516595e+02 </wgt>
<wgt id='44'> +3.0640142e+02 </wgt>
<wgt id='45'> +4.8159400e+02 </wgt>
<wgt id='46'> +4.7959786e+02 </wgt>
<wgt id='47'> +4.9773115e+02 </wgt>
<wgt id='48'> +4.8183241e+02 </wgt>
<wgt id='49'> +4.8088238e+02 </wgt>
<wgt id='50'> +5.5625076e+02 </wgt>
<wgt id='51'> +4.7239693e+02 </wgt>
<wgt id='52'> +4.7819090e+02 </wgt>
<wgt id='53'> +4.8921067e+02 </wgt>
<wgt id='54'> +4.8428596e+02 </wgt>
<wgt id='55'> +4.3040075e+02 </wgt>
<wgt id='56'> +4.5068942e+02 </wgt>
<wgt id='57'> +4.6834655e+02 </wgt>
<wgt id='58'> +4.8670637e+02 </wgt>
<wgt id='59'> +4.7171089e+02 </wgt>
<wgt id='60'> +4.5952627e+02 </wgt>
<wgt id='61'> +4.7432543e+02 </wgt>
<wgt id='62'> +4.7505082e+02 </wgt>
<wgt id='63'> +4.8205087e+02 </wgt>
<wgt id='64'> +4.7912676e+02 </wgt>
<wgt id='65'> +5.6878864e+02 </wgt>
<wgt id='66'> +4.6987903e+02 </wgt>
<wgt id='67'> +4.8597946e+02 </wgt>
<wgt id='68'> +5.1298077e+02 </wgt>
<wgt id='69'> +4.6754910e+02 </wgt>
<wgt id='70'> +4.7402867e+02 </wgt>
<wgt id='71'> +4.9077543e+02 </wgt>
<wgt id='72'> +4.7138515e+02 </wgt>
<wgt id='73'> +4.7632513e+02 </wgt>
<wgt id='74'> +4.9346432e+02 </wgt>
<wgt id='75'> +4.9179179e+02 </wgt>
<wgt id='76'> +4.6783362e+02 </wgt>
<wgt id='77'> +4.6259129e+02 </wgt>
<wgt id='78'> +4.8465650e+02 </wgt>
<wgt id='79'> +4.6052131e+02 </wgt>
<wgt id='80'> +4.7848808e+02 </wgt>
<wgt id='81'> +4.7356210e+02 </wgt>
<wgt id='82'> +4.9623627e+02 </wgt>
<wgt id='83'> +4.9077632e+02 </wgt>
<wgt id='84'> +5.2807613e+02 </wgt>
<wgt id='85'> +5.0712797e+02 </wgt>
<wgt id='86'> +4.7727038e+02 </wgt>
<wgt id='87'> +4.8078235e+02 </wgt>
<wgt id='88'> +4.8964612e+02 </wgt>
<wgt id='89'> +4.9195228e+02 </wgt>
<wgt id='90'> +4.8592932e+02 </wgt>
<wgt id='91'> +5.1332131e+02 </wgt>
<wgt id='92'> +4.4662017e+02 </wgt>
<wgt id='93'> +4.7217429e+02 </wgt>
<wgt id='94'> +4.8062882e+02 </wgt>
<wgt id='95'> +4.6241874e+02 </wgt>
<wgt id='96'> +5.1793840e+02 </wgt>
<wgt id='97'> +4.9047555e+02 </wgt>
<wgt id='98'> +4.5883174e+02 </wgt>
<wgt id='99'> +4.6868420e+02 </wgt>
<wgt id='100'> +4.8176133e+02 </wgt>
<wgt id='101'> +5.0101099e+02 </wgt>
<wgt id='102'> +4.6382660e+02 </wgt>
<wgt id='103'> +5.2108288e+02 </wgt>
<wgt id='104'> +4.7981835e+02 </wgt>
<wgt id='105'> +5.0179011e+02 </wgt>
<wgt id='106'> +4.4643528e+02 </wgt>
<wgt id='107'> +4.7935067e+02 </wgt>
<wgt id='108'> +4.3525226e+02 </wgt>
<wgt id='109'> +4.5450166e+02 </wgt>
<wgt id='110'> +4.8312888e+02 </wgt>
<wgt id='111'> +4.7023331e+02 </wgt>
<wgt id='112'> +4.6182905e+02 </wgt>
<wgt id='113'> +4.4385347e+02 </wgt>
<wgt id='114'> +4.8398588e+02 </wgt>
<wgt id='115'> +4.8704629e+02 </wgt>
<wgt id='116'> +4.7795938e+02 </wgt>
<wgt id='117'> +4.8966803e+02 </wgt>
<wgt id='118'> +4.9074507e+02 </wgt>
<wgt id='119'> +4.6379069e+02 </wgt>
<wgt id='120'> +4.8263596e+02 </wgt>
<wgt id='121'> +4.6885691e+02 </wgt>
<wgt id='122'> +4.7571135e+02 </wgt>
<wgt id='123'> +4.8726769e+02 </wgt>
<wgt id='124'> +5.1006258e+02 </wgt>
<wgt id='125'> +5.1153202e+02 </wgt>
<wgt id='126'> +4.9902436e+02 </wgt>
<wgt id='127'> +4.9475342e+02 </wgt>
<wgt id='128'> +4.4975192e+02 </wgt>
<wgt id='129'> +5.4380884e+02 </wgt>
<wgt id='130'> +4.8526563e+02 </wgt>
<wgt id='131'> +5.1609322e+02 </wgt>
<wgt id='132'> +4.7322186e+02 </wgt>
<wgt id='133'> +4.7577141e+02 </wgt>
<wgt id='134'> +4.5223653e+02 </wgt>
<wgt id='135'> +4.9398387e+02 </wgt>
<wgt id='136'> +4.5902988e+02 </wgt>
<wgt id='137'> +4.5286035e+02 </wgt>
<wgt id='138'> +4.3581636e+02 </wgt>
<wgt id='139'> +4.8943136e+02 </wgt>
<wgt id='140'> +5.1347345e+02 </wgt>
<wgt id='141'> +4.8011266e+02 </wgt>
<wgt id='142'> +4.8833958e+02 </wgt>
<wgt id='143'> +4.7568544e+02 </wgt>
<wgt id='144'> +4.8279072e+02 </wgt>
<wgt id='145'> +4.8265376e+02 </wgt>
</rwgt>
</event>
<event>
 8      1 +4.8159400e+02 1.88730400e+02 7.54677100e-03 1.16029100e-01
       21 -1    0    0  501  502 +0.0000000000e+00 +0.0000000000e+00 +3.6677318934e+02 3.6677318934e+02 0.0000000000e+00 0.0000e+00 1.0000e+00
       21 -1    0    0  502  503 -0.0000000000e+00 -0.0000000000e+00 -2.9725393981e+02 2.9725393981e+02 0.0000000000e+00 0.0000e+00 1.0000e+00
       -6  2    1    2    0  503 +5.7532547226e+01 -4.0265343239e+01 -2.3861280726e+02 3.0422893227e+02 1.7517956383e+02 0.0000e+00 0.0000e+00
        6  2    1    2  501    0 -5.7532547226e+01 +4.0265343239e+01 +3.0813205679e+02 3.5979819688e+02 1.7198280786e+02 0.0000e+00 0.0000e+00
        5  1    4    4  501    0 +4.3559279202e+01 +2.3511521912e+01 +1.2949644592e+02 1.3871417366e+02 4.7000000000e+00 0.0000e+00 -1.0000e+00
       24  1    4    4    0    0 -1.0109182643e+02 +1.6753821327e+01 +1.7863561086e+02 2.2108402322e+02 8.0419002446e+01 0.0000e+00 0.0000e+00
       -5  1    3    3    0  503 +9.1513716887e+01 -2.9878456216e+01 -9.1804485197e+01 1.3310761070e+02 4.7000000000e+00 0.0000e+00 1.0000e+00
      -24  1    3    3    0    0 -3.3981169662e+01 -1.0386887023e+01 -1.4680832206e+02 1.7112132156e+02 8.0419002446e+01 0.0000e+00 1.0000e+00
<mgrwt>
<rscale>  2 0.18798516E+03</rscale>
<asrwt>0</asrwt>
<pdfrwt beam="1">  1       21 0.56426644E-01 0.18873042E+03</pdfrwt>
<pdfrwt beam="2">  1       21 0.45731375E-01 0.18873042E+03</pdfrwt>
<totfact> 0.13577691E+04</totfact>
</mgrwt>
<rwgt>
<wgt id='1'> +6.3800732e+02 </wgt>
<wgt id='2'> +5.2962885e+02 </wgt>
<wgt id='3'> +4.8783314e+02 </wgt>
<wgt id='4'> +6.4674326e+02 </wgt>
<wgt id='5'> +3.8867533e+02 </wgt>
<wgt id='6'> +5.9165857e+02 </wgt>
<wgt id='7'> +4.8561769e+02 </wgt>
<wgt id='8'> +4.4591537e+02 </wgt>
<wgt id='9'> +6.0016259e+02 </wgt>
<wgt id='10'> +3.5578242e+02 </wgt>
<wgt id='11'> +5.4071264e+02 </wgt>
<wgt id='12'> +4.4435547e+02 </wgt>
<wgt id='13'> +4.0831885e+02 </wgt>
<wgt id='14'> +5.4859274e+02 </wgt>
<wgt id='15'> +3.2651023e+02 </wgt>
<wgt id='16'> +5.1932063e+02 </wgt>
<wgt id='17'> +4.4149385e+02 </wgt>
<wgt id='18'> +4.1003157e+02 </wgt>
<wgt id='19'> +5.2569554e+02 </wgt>
<wgt id='20'> +3.3078044e+02 </wgt>
<wgt id='21'> +4.0480654e+02 </wgt>
<wgt id='22'> +3.7479901e+02 </wgt>
<wgt id='23'> +4.8783314e+02 </wgt>
<wgt id='24'> +3.0278707e+02 </wgt>
<wgt id='25'> +4.4012540e+02 </wgt>
<wgt id='26'> +3.7041073e+02 </wgt>
<wgt id='27'> +3.4319854e+02 </wgt>
<wgt id='28'> +4.4591537e+02 </wgt>
<wgt id='29'> +2.7787510e+02 </wgt>
<wgt id='30'> +4.3691180e+02 </wgt>
<wgt id='31'> +3.7495616e+02 </wgt>
<wgt id='32'> +3.4959350e+02 </wgt>
<wgt id='33'> +4.4185553e+02 </wgt>
<wgt id='34'> +2.8491978e+02 </wgt>
<wgt id='35'> +4.0517186e+02 </wgt>
<wgt id='36'> +3.4379801e+02 </wgt>
<wgt id='37'> +3.1955417e+02 </wgt>
<wgt id='38'> +4.1003157e+02 </wgt>
<wgt id='39'> +2.6080752e+02 </wgt>
<wgt id='40'> +3.7028374e+02 </wgt>
<wgt id='41'> +3.1458600e+02 </wgt>
<wgt id='42'> +2.9261156e+02 </wgt>
<wgt id='43'> +3.7479901e+02 </wgt>
<wgt id='44'> +2.3934944e+02 </wgt>
<wgt id='45'> +4.8159400e+02 </wgt>
<wgt id='46'> +4.9072988e+02 </wgt>
<wgt id='47'> +5.0440716e+02 </wgt>
<wgt id='48'> +4.8878849e+02 </wgt>
<wgt id='49'> +4.8009482e+02 </wgt>
<wgt id='50'> +5.9104055e+02 </wgt>
<wgt id='51'> +4.7215150e+02 </wgt>
<wgt id='52'> +4.8151646e+02 </wgt>
<wgt id='53'> +4.8004666e+02 </wgt>
<wgt id='54'> +4.8446258e+02 </wgt>
<wgt id='55'> +4.2678692e+02 </wgt>
<wgt id='56'> +4.3662412e+02 </wgt>
<wgt id='57'> +4.6822310e+02 </wgt>
<wgt id='58'> +4.7672178e+02 </wgt>
<wgt id='59'> +4.8442992e+02 </wgt>
<wgt id='60'> +4.7053799e+02 </wgt>
<wgt id='61'> +4.5001345e+02 </wgt>
<wgt id='62'> +4.7696827e+02 </wgt>
<wgt id='63'> +4.8183754e+02 </wgt>
<wgt id='64'> +4.6854359e+02 </wgt>
<wgt id='65'> +5.7002787e+02 </wgt>
<wgt id='66'> +4.7127262e+02 </wgt>
<wgt id='67'> +4.8585741e+02 </wgt>
<wgt id='68'> +5.2806415e+02 </wgt>
<wgt id='69'> +4.8019569e+02 </wgt>
<wgt id='70'> +4.7113134e+02 </wgt>
<wgt id='71'> +4.9063263e+02 </wgt>
<wgt id='72'> +4.5182737e+02 </wgt>
<wgt id='73'> +4.7084422e+02 </wgt>
<wgt id='74'> +5.0649879e+02 </wgt>
<wgt id='75'> +4.9494898e+02 </wgt>
<wgt id='76'> +4.6457364e+02 </wgt>
<wgt id='77'> +4.6916837e+02 </wgt>
<wgt id='78'> +4.7161432e+02 </wgt>
<wgt id='79'> +4.6673109e+02 </wgt>
<wgt id='80'> +4.7364581e+02 </wgt>
<wgt id='81'> +4.6848235e+02 </wgt>
<wgt id='82'> +4.8942413e+02 </wgt>
<wgt id='83'> +4.9664905e+02 </wgt>
<wgt id='84'> +5.3575754e+02 </wgt>
<wgt id='85'> +5.0809694e+02 </wgt>
<wgt id='86'> +4.8393748e+02 </wgt>
<wgt id='87'> +4.8512853e+02 </wgt>
<wgt id='88'> +4.9271151e+02 </wgt>
<wgt id='89'> +4.9852174e+02 </wgt>
<wgt id='90'> +4.9104426e+02 </wgt>
<wgt id='91'> +5.1086043e+02 </wgt>
<wgt id='92'> +4.2526357e+02 </wgt>
<wgt id='93'> +4.7821970e+02 </wgt>
<wgt id='94'> +4.7237249e+02 </wgt>
<wgt id='95'> +4.5727862e+02 </wgt>
<wgt id='96'> +5.3415709e+02 </wgt>
<wgt id='97'> +4.8386667e+02 </wgt>
<wgt id='98'> +4.6035905e+02 </wgt>
<wgt id='99'> +4.6355414e+02 </wgt>
<wgt id='100'> +4.6242146e+02 </wgt>
<wgt id='101'> +5.2603893e+02 </wgt>
<wgt id='102'> +4.8307552e+02 </wgt>
<wgt id='103'> +5.3304238e+02 </wgt>
<wgt id='104'> +4.8535381e+02 </wgt>
<wgt id='105'> +4.9498468e+02 </wgt>
<wgt id='106'> +4.2661990e+02 </wgt>
<wgt id='107'> +4.6007040e+02 </wgt>
<wgt id='108'> +4.1485290e+02 </wgt>
<wgt id='109'> +4.4222958e+02 </wgt>
<wgt id='110'> +4.7971430e+02 </wgt>
<wgt id='111'> +4.6306657e+02 </wgt>
<wgt id='112'> +4.4975399e+02 </wgt>
<wgt id='113'> +4.3319110e+02 </wgt>
<wgt id='114'> +4.6501986e+02 </wgt>
<wgt id='115'> +4.6576877e+02 </wgt>
<wgt id='116'> +4.9492796e+02 </wgt>
<wgt id='117'> +4.8234112e+02 </wgt>
<wgt id='118'> +5.0675342e+02 </wgt>
<wgt id='119'> +4.5747637e+02 </wgt>
<wgt id='120'> +4.6903000e+02 </wgt>
<wgt id='121'> +4.6308793e+02 </wgt>
<wgt id='122'> +4.7331426e+02 </wgt>
<wgt id='123'> +4.9134414e+02 </wgt>
<wgt id='124'> +5.3172325e+02 </wgt>
<wgt id='125'> +5.3111492e+02 </wgt>
<wgt id='126'> +5.0643267e+02 </wgt>
<wgt id='127'> +5.0142120e+02 </wgt>
<wgt id='128'> +4.3695236e+02 </wgt>
<wgt id='129'> +5.5313953e+02 </wgt>
<wgt id='130'> +4.8785786e+02 </wgt>
<wgt id='131'> +5.1662757e+02 </wgt>
<wgt id='132'> +4.8671421e+02 </wgt>
<wgt id='133'> +4.8826145e+02 </wgt>
<wgt id='134'> +4.5392886e+02 </wgt>
<wgt id='135'> +4.9463899e+02 </wgt>
<wgt id='136'> +4.6909776e+02 </wgt>
<wgt id='137'> +4.5599761e+02 </wgt>
<wgt id='138'> +4.4719229e+02 </wgt>
<wgt id='139'> +4.9673577e+02 </wgt>
<wgt id='140'> +5.0731296e+02 </wgt>
<wgt id='141'> +4.8372375e+02 </wgt>
<wgt id='142'> +4.7257285e+02 </wgt>
<wgt id='143'> +4.8277385e+02 </wgt>
<wgt id='144'> +4.7436231e+02 </wgt>
<wgt id='145'> +4.8314666e+02 </wgt>
</rwgt>
</event>
<event>
 8      1 +4.8159400e+02 2.03976400e+02 7.54677100e-03 1.14707600e-01
       21 -1    0    0  503  502 +0.0000000000e+00 +0.0000000000e+00 +6.4406071480e+01 6.4406071480e+01 0.0000000000e+00 0.0000e+00 -1.0000e+00
       21 -1    0    0  501  503 -0.0000000000e+00 -0.0000000000e+00 -7.2852988558e+02 7.2852988558e+02 0.0000000000e+00 0.0000e+00 1.0000e+00
        6  2    1    2  501    0 +4.5225462057e+01 -1.0888327689e+02 -1.8862428542e+02 2.7553264667e+02 1.6259830234e+02 0.0000e+00 0.0000e+00
       -6  2    1    2    0  502 -4.5225462057e+01 +1.0888327689e+02 -4.7549952868e+02 5.1740331039e+02 1.6644961228e+02 0.0000e+00 0.0000e+00
        5  1    3    3  501    0 +7.5152069837e+01 -6.9418961550e+01 -7.0699055693e+01 1.2444786981e+02 4.7000000000e+00 0.0000e+00 -1.0000e+00
       24  1    3    3    0    0 -2.9926607780e+01 -3.9464315337e+01 -1.1792522973e+02 1.5108477686e+02 8.0419002446e+01 0.0000e+00 -1.0000e+00
       -5  1    4    4    0  502 -6.9396840917e+01 +5.0596412737e+01 -1.2096461396e+02 1.4842656886e+02 4.7000000000e+00 0.0000e+00 1.0000e+00
      -24  1    4    4    0    0 +2.4171378860e+01 +5.8286864150e+01 -3.5453491471e+02 3.6897674153e+02 8.0419002446e+01 0.0000e+00 1.0000e+00
<mgrwt>
<rscale>  2 0.20318928E+03</rscale>
<asrwt>0</asrwt>
<pdfrwt beam="1">  1       21 0.99086268E-02 0.20397643E+03</pdfrwt>
<pdfrwt beam="2">  1       21 0.11208152E+00 0.20397643E+03</pdfrwt>
<totfact> 0.51167140E+04</totfact>
</mgrwt>
<rwgt>
<wgt id='1'> +6.2429090e+02 </wgt>
<wgt id='2'> +5.3119480e+02 </wgt>
<wgt id='3'> +4.9130982e+02 </wgt>
<wgt id='4'> +6.3762125e+02 </wgt>
<wgt id='5'> +4.7076679e+02 </wgt>
<wgt id='6'> +5.8933898e+02 </wgt>
<wgt id='7'> +4.9517075e+02 </wgt>
<wgt id='8'> +4.5659925e+02 </wgt>
<wgt id='9'> +6.0291185e+02 </wgt>
<wgt id='10'> +4.3742127e+02 </wgt>
<wgt id='11'> +5.4757919e+02 </wgt>
<wgt id='12'> +4.6013928e+02 </wgt>
<wgt id='13'> +4.2434787e+02 </wgt>
<wgt id='14'> +5.6031670e+02 </wgt>
<wgt id='15'> +4.0656592e+02 </wgt>
<wgt id='16'> +5.1015589e+02 </wgt>
<wgt id='17'> +4.4387177e+02 </wgt>
<wgt id='18'> +4.1362838e+02 </wgt>
<wgt id='19'> +5.1959434e+02 </wgt>
<wgt id='20'> +3.9736640e+02 </wgt>
<wgt id='21'> +4.1376970e+02 </wgt>
<wgt id='22'> +3.8440593e+02 </wgt>
<wgt id='23'> +4.9130982e+02 </wgt>
<wgt id='24'> +3.6922001e+02 </wgt>
<wgt id='25'> +4.4746887e+02 </wgt>
<wgt id='26'> +3.8449705e+02 </wgt>
<wgt id='27'> +3.5725384e+02 </wgt>
<wgt id='28'> +4.5659925e+02 </wgt>
<wgt id='29'> +3.4317552e+02 </wgt>
<wgt id='30'> +4.3006658e+02 </wgt>
<wgt id='31'> +3.7733851e+02 </wgt>
<wgt id='32'> +3.5301645e+02 </wgt>
<wgt id='33'> +4.3744081e+02 </wgt>
<wgt id='34'> +3.3985409e+02 </wgt>
<wgt id='35'> +4.0598862e+02 </wgt>
<wgt id='36'> +3.5174853e+02 </wgt>
<wgt id='37'> +3.2807618e+02 </wgt>
<wgt id='38'> +4.1362838e+02 </wgt>
<wgt id='39'> +3.1578142e+02 </wgt>
<wgt id='40'> +3.7722079e+02 </wgt>
<wgt id='41'> +3.2686365e+02 </wgt>
<wgt id='42'> +3.0490288e+02 </wgt>
<wgt id='43'> +3.8440593e+02 </wgt>
<wgt id='44'> +2.9350645e+02 </wgt>
<wgt id='45'> +4.8159400e+02 </wgt>
<wgt id='46'> +4.9203611e+02 </wgt>
<wgt id='47'> +4.9420025e+02 </wgt>
<wgt id='48'> +4.8345988e+02 </wgt>
<wgt id='49'> +4.7022338e+02 </wgt>
<wgt id='50'> +5.6695622e+02 </wgt>
<wgt id='51'> +4.6771022e+02 </wgt>
<wgt id='52'> +4.7828861e+02 </wgt>
<wgt id='53'> +4.7537817e+02 </wgt>
<wgt id='54'> +4.9248375e+02 </wgt>
<wgt id='55'> +4.6877651e+02 </wgt>
<wgt id='56'> +4.4362381e+02 </wgt>
<wgt id='57'> +4.8876132e+02 </wgt>
<wgt id='58'> +4.6807819e+02 </wgt>
<wgt id='59'> +5.0377609e+02 </wgt>
<wgt id='60'> +4.8264105e+02 </wgt>
<wgt id='61'> +4.2206161e+02 </wgt>
<wgt id='62'> +4.6909085e+02 </wgt>
<wgt id='63'> +4.8656180e+02 </wgt>
<wgt id='64'> +4.7493075e+02 </wgt>
<wgt id='65'> +5.1911305e+02 </wgt>
<wgt id='66'> +4.7490046e+02 </wgt>
<wgt id='67'> +4.8397992e+02 </wgt>
<wgt id='68'> +5.3422164e+02 </wgt>
<wgt id='69'> +4.8349471e+02 </wgt>
<wgt id='70'> +4.7985360e+02 </wgt>
<wgt id='71'> +4.8178310e+02 </wgt>
<wgt id='72'> +4.6429916e+02 </wgt>
<wgt id='73'> +4.6293999e+02 </wgt>
<wgt id='74'> +5.1250001e+02 </wgt>
<wgt id='75'> +4.9412712e+02 </wgt>
<wgt id='76'> +4.7947998e+02 </wgt>
<wgt id='77'> +4.7140566e+02 </wgt>
<wgt id='78'> +4.5503705e+02 </wgt>
<wgt id='79'> +4.8105767e+02 </wgt>
<wgt id='80'> +4.6409078e+02 </wgt>
<wgt id='81'> +4.7583845e+02 </wgt>
<wgt id='82'> +4.7121521e+02 </wgt>
<wgt id='83'> +4.8378352e+02 </wgt>
<wgt id='84'> +5.0830293e+02 </wgt>
<wgt id='85'> +4.8213981e+02 </wgt>
<wgt id='86'> +4.8553635e+02 </wgt>
<wgt id='87'> +4.8392390e+02 </wgt>
<wgt id='88'> +4.8026897e+02 </wgt>
<wgt id='89'> +4.7861324e+02 </wgt>
<wgt id='90'> +4.8675275e+02 </wgt>
<wgt id='91'> +4.8301800e+02 </wgt>
<wgt id='92'> +4.4491820e+02 </wgt>
<wgt id='93'> +4.8003616e+02 </wgt>
<wgt id='94'> +4.6525322e+02 </wgt>
<wgt id='95'> +4.8231781e+02 </wgt>
<wgt id='96'> +5.1012083e+02 </wgt>
<wgt id='97'> +4.7127689e+02 </wgt>
<wgt id='98'> +4.7706935e+02 </wgt>
<wgt id='99'> +4.5103702e+02 </wgt>
<wgt id='100'> +4.4004350e+02 </wgt>
<wgt id='101'> +5.3367686e+02 </wgt>
<wgt id='102'> +5.0086406e+02 </wgt>
<wgt id='103'> +5.0927339e+02 </wgt>
<wgt id='104'> +4.8844149e+02 </wgt>
<wgt id='105'> +4.9714250e+02 </wgt>
<wgt id='106'> +4.4587494e+02 </wgt>
<wgt id='107'> +4.6048168e+02 </wgt>
<wgt id='108'> +4.3148500e+02 </wgt>
<wgt id='109'> +4.5932986e+02 </wgt>
<wgt id='110'> +4.7403454e+02 </wgt>
<wgt id='111'> +4.6998397e+02 </wgt>
<wgt id='112'> +4.6364376e+02 </wgt>
<wgt id='113'> +4.5536739e+02 </wgt>
<wgt id='114'> +4.7695568e+02 </wgt>
<wgt id='115'> +4.5443546e+02 </wgt>
<wgt id='116'> +5.0062878e+02 </wgt>
<wgt id='117'> +4.7467799e+02 </wgt>
<wgt id='118'> +5.0296715e+02 </wgt>
<wgt id='119'> +4.7884990e+02 </wgt>
<wgt id='120'> +4.7274035e+02 </wgt>
<wgt id='121'> +4.7590301e+02 </wgt>
<wgt id='122'> +4.7647772e+02 </wgt>
<wgt id='123'> +4.8090550e+02 </wgt>
<wgt id='124'> +5.3223166e+02 </wgt>
<wgt id='125'> +5.4285017e+02 </wgt>
<wgt id='126'> +4.9153375e+02 </wgt>
<wgt id='127'> +4.8904520e+02 </wgt>
<wgt id='128'> +4.4142963e+02 </wgt>
<wgt id='129'> +5.3095809e+02 </wgt>
<wgt id='130'> +4.7330265e+02 </wgt>
<wgt id='131'> +4.9304081e+02 </wgt>
<wgt id='132'> +5.1012686e+02 </wgt>
<wgt id='133'> +4.9837700e+02 </wgt>
<wgt id='134'> +4.7473777e+02 </wgt>
<wgt id='135'> +4.8411409e+02 </wgt>
<wgt id='136'> +5.0844454e+02 </wgt>
<wgt id='137'> +4.6606930e+02 </wgt>
<wgt id='138'> +4.5696048e+02 </wgt>
<wgt id='139'> +4.9573381e+02 </wgt>
<wgt id='140'> +4.9094663e+02 </wgt>
<wgt id='141'> +4.9532285e+02 </wgt>
<wgt id='142'> +4.4198220e+02 </wgt>
<wgt id='143'> +4.9267920e+02 </wgt>
<wgt id='144'> +4.6847507e+02 </wgt>
<wgt id='145'> +4.7304736e+02 </wgt>
</rwgt>
</event>
<event>
 8      1 +4.8159400e+02 1.93468800e+02 7.54677100e-03 1.15566800e-01
       21 -1    0    0  503  502 +0.0000000000e+00 +0.0000000000e+00 +1.6845165506e+02 1.6845165506e+02 0.0000000000e+00 0.0000e+00 1.0000e+00
       21 -1    0    0  501  503 -0.0000000000e+00 -0.0000000000e+00 -2.8341724662e+02 2.8341724662e+02 0.0000000000e+00 0.0000e+00 1.0000e+00
        6  2    1    2  501    0 -3.5854171032e+01 +7.6629168641e+01 +4.8683442213e+01 1.9949998692e+02 1.7399027607e+02 0.0000e+00 0.0000e+00
       -6  2    1    2    0  502 +3.5854171032e+01 -7.6629168641e+01 -1.6364903378e+02 2.5236891476e+02 1.7248626558e+02 0.0000e+00 0.0000e+00
        5  1    3    3  501    0 +7.7586859661e+00 -2.0165747408e+01 -3.5583707943e+01 4.1894448885e+01 4.7000000000e+00 0.0000e+00 -1.0000e+00
       24  1    3    3    0    0 -4.3612856998e+01 +9.6794916049e+01 +8.4267150155e+01 1.5760553803e+02 8.0419002446e+01 0.0000e+00 0.0000e+00
       -5  1    4    4    0  502 -3.8162113911e+01 -7.1560799201e+01 -8.5312204862e+01 1.1780304418e+02 4.7000000000e+00 0.0000e+00 1.0000e+00
      -24  1    4    4    0    0 +7.4016284943e+01 -5.0683694398e+00 -7.8336828920e+01 1.3456587058e+02 8.0419002446e+01 0.0000e+00 1.0000e+00
<mgrwt>
<rscale>  2 0.19313002E+03</rscale>
<asrwt>0</asrwt>
<pdfrwt beam="1">  1       21 0.25915640E-01 0.19346878E+03</pdfrwt>
<pdfrwt beam="2">  1       21 0.43602653E-01 0.19346878E+03</pdfrwt>
<totfact> 0.71456380E+04</totfact>
</mgrwt>
<rwgt>
<wgt id='1'> +6.1817092e+02 </wgt>
<wgt id='2'> +5.1526738e+02 </wgt>
<wgt id='3'> +5.0063818e+02 </wgt>
<wgt id='4'> +6.4418731e+02 </wgt>
<wgt id='5'> +4.6146695e+02 </wgt>
<wgt id='6'> +5.9090250e+02 </wgt>
<wgt id='7'> +4.8517435e+02 </wgt>
<wgt id='8'> +4.7070619e+02 </wgt>
<wgt id='9'> +6.1744591e+02 </wgt>
<wgt id='10'> +4.3323587e+02 </wgt>
<wgt id='11'> +5.5489079e+02 </wgt>
<wgt id='12'> +4.5539261e+02 </wgt>
<wgt id='13'> +4.4180047e+02 </wgt>
<wgt id='14'> +5.8053025e+02 </wgt>
<wgt id='15'> +4.0662743e+02 </wgt>
<wgt id='16'> +5.0381815e+02 </wgt>
<wgt id='17'> +4.3100919e+02 </wgt>
<wgt id='18'> +4.2008216e+02 </wgt>
<wgt id='19'> +5.2232067e+02 </wgt>
<wgt id='20'> +3.8957954e+02 </wgt>
<wgt id='21'> +4.0583707e+02 </wgt>
<wgt id='22'> +3.9496642e+02 </wgt>
<wgt id='23'> +5.0063818e+02 </wgt>
<wgt id='24'> +3.6574630e+02 </wgt>
<wgt id='25'> +4.5224394e+02 </wgt>
<wgt id='26'> +3.8092533e+02 </wgt>
<wgt id='27'> +3.7071182e+02 </wgt>
<wgt id='28'> +4.7070619e+02 </wgt>
<wgt id='29'> +3.4328293e+02 </wgt>
<wgt id='30'> +4.2419467e+02 </wgt>
<wgt id='31'> +3.6656737e+02 </wgt>
<wgt id='32'> +3.5782231e+02 </wgt>
<wgt id='33'> +4.3827579e+02 </wgt>
<wgt id='34'> +3.3324480e+02 </wgt>
<wgt id='35'> +4.0548282e+02 </wgt>
<wgt id='36'> +3.4515882e+02 </wgt>
<wgt id='37'> +3.3642895e+02 </wgt>
<wgt id='38'> +4.2008216e+02 </wgt>
<wgt id='39'> +3.1285794e+02 </wgt>
<wgt id='40'> +3.8077125e+02 </wgt>
<wgt id='41'> +3.2397174e+02 </wgt>
<wgt id='42'> +3.1576910e+02 </wgt>
<wgt id='43'> +3.9496642e+02 </wgt>
<wgt id='44'> +2.9364286e+02 </wgt>
<wgt id='45'> +4.8159400e+02 </wgt>
<wgt id='46'> +4.8075260e+02 </wgt>
<wgt id='47'> +4.9853503e+02 </wgt>
<wgt id='48'> +4.8258853e+02 </wgt>
<wgt id='49'> +4.8087508e+02 </wgt>
<wgt id='50'> +5.6031301e+02 </wgt>
<wgt id='51'> +4.7236373e+02 </wgt>
<wgt id='52'> +4.7858942e+02 </wgt>
<wgt id='53'> +4.8826081e+02 </wgt>
<wgt id='54'> +4.8427719e+02 </wgt>
<wgt id='55'> +4.2957412e+02 </wgt>
<wgt id='56'> +4.4897936e+02 </wgt>
<wgt id='57'> +4.6817572e+02 </wgt>
<wgt id='58'> +4.8572222e+02 </wgt>
<wgt id='59'> +4.7293943e+02 </wgt>
<wgt id='60'> +4.6055990e+02 </wgt>
<wgt id='61'> +4.7181460e+02 </wgt>
<wgt id='62'> +4.7527336e+02 </wgt>
<wgt id='63'> +4.8199559e+02 </wgt>
<wgt id='64'> +4.7795341e+02 </wgt>
<wgt id='65'> +5.6954577e+02 </wgt>
<wgt id='66'> +4.6991801e+02 </wgt>
<wgt id='67'> +4.8597603e+02 </wgt>
<wgt id='68'> +5.1465553e+02 </wgt>
<wgt id='69'> +4.6876427e+02 </wgt>
<wgt id='70'> +4.7362434e+02 </wgt>
<wgt id='71'> +4.9083784e+02 </wgt>
<wgt id='72'> +4.6917688e+02 </wgt>
<wgt id='73'> +4.7578226e+02 </wgt>
<wgt id='74'> +4.9486438e+02 </wgt>
<wgt id='75'> +4.9214940e+02 </wgt>
<wgt id='76'> +4.6732969e+02 </wgt>
<wgt id='77'> +4.6320307e+02 </wgt>
<wgt id='78'> +4.8335042e+02 </wgt>
<wgt id='79'> +4.6099956e+02 </wgt>
<wgt id='80'> +4.7798887e+02 </wgt>
<wgt id='81'> +4.7292739e+02 </wgt>
<wgt id='82'> +4.9568233e+02 </wgt>
<wgt id='83'> +4.9149609e+02 </wgt>
<wgt id='84'> +5.2920420e+02 </wgt>
<wgt id='85'> +5.0751787e+02 </wgt>
<wgt id='86'> +4.7793925e+02 </wgt>
<wgt id='87'> +4.8125853e+02 </wgt>
<wgt id='88'> +4.9003308e+02 </wgt>
<wgt id='89'> +4.9285784e+02 </wgt>
<wgt id='90'> +4.8653166e+02 </wgt>
<wgt id='91'> +5.1333398e+02 </wgt>
<wgt id='92'> +4.4401183e+02 </wgt>
<wgt id='93'> +4.7276945e+02 </wgt>
<wgt id='94'> +4.7977543e+02 </wgt>
<wgt id='95'> +4.6165683e+02 </wgt>
<wgt id='96'> +5.1992579e+02 </wgt>
<wgt id='97'> +4.8986923e+02 </wgt>
<wgt id='98'> +4.5878437e+02 </wgt>
<wgt id='99'> +4.6817751e+02 </wgt>
<wgt id='100'> +4.7980093e+02 </wgt>
<wgt id='101'> +5.0368963e+02 </wgt>
<wgt id='102'> +4.6565761e+02 </wgt>
<wgt id='103'> +5.2269701e+02 </wgt>
<wgt id='104'> +4.8036316e+02 </wgt>
<wgt id='105'> +5.0114485e+02 </wgt>
<wgt id='106'> +4.4400881e+02 </wgt>
<wgt id='107'> +4.7725448e+02 </wgt>
<wgt id='108'> +4.3270586e+02 </wgt>
<wgt id='109'> +4.5298126e+02 </wgt>
<wgt id='110'> +4.8282917e+02 </wgt>
<wgt id='111'> +4.6936976e+02 </wgt>
<wgt id='112'> +4.6035210e+02 </wgt>
<wgt id='113'> +4.4241083e+02 </wgt>
<wgt id='114'> +4.8188573e+02 </wgt>
<wgt id='115'> +4.8476870e+02 </wgt>
<wgt id='116'> +4.7969409e+02 </wgt>
<wgt id='117'> +4.8894699e+02 </wgt>
<wgt id='118'> +4.9248920e+02 </wgt>
<wgt id='119'> +4.6292592e+02 </wgt>
<wgt id='120'> +4.8113372e+02 </wgt>
<wgt id='121'> +4.6815770e+02 </wgt>
<wgt id='122'> +4.7540919e+02 </wgt>
<wgt id='123'> +4.8776156e+02 </wgt>
<wgt id='124'> +5.1246180e+02 </wgt>
<wgt id='125'> +5.1365776e+02 </wgt>
<wgt id='126'> +4.9995071e+02 </wgt>
<wgt id='127'> +4.9560022e+02 </wgt>
<wgt id='128'> +4.4817024e+02 </wgt>
<wgt id='129'> +5.4522748e+02 </wgt>
<wgt id='130'> +4.8560116e+02 </wgt>
<wgt id='131'> +5.1645092e+02 </wgt>
<wgt id='132'> +4.7450512e+02 </wgt>
<wgt id='133'> +4.7700925e+02 </wgt>
<wgt id='134'> +4.5216096e+02 </wgt>
<wgt id='135'> +4.9420282e+02 </wgt>
<wgt id='136'> +4.5982528e+02 </wgt>
<wgt id='137'> +4.5297861e+02 </wgt>
<wgt id='138'> +4.3670920e+02 </wgt>
<wgt id='139'> +4.9028355e+02 </wgt>
<wgt id='140'> +5.1305662e+02 </wgt>
<wgt id='141'> +4.8040317e+02 </wgt>
<wgt id='142'> +4.8683582e+02 </wgt>
<wgt id='143'> +4.7635541e+02 </wgt>
<wgt id='144'> +4.8193190e+02 </wgt>
<wgt id='145'> +4.8274996e+02 </wgt>
</rwgt>
</event>
<event>
 8      1 +4.8159400e+02 2.25150000e+02 7.54677100e-03 1.13011700e-01
       21 -1    0    0  501  502 +0.0000000000e+00 +0.0000000000e+00 +5.6859074574e+02 5.6859074574e+02 0.0000000000e+00 0.0000e+00 1.0000e+00
       21 -1    0    0  502  503 -0.0000000000e+00 -0.0000000000e+00 -9.2562625727e+01 9.2562625727e+01 0.0000000000e+00 0.0000e+00 1.0000e+00
       -6  2    1    2    0  503 -1.2993379490e+02 -6.3146524369e+01 +3.0173731190e+02 3.7642580307e+02 1.7257087015e+02 0.0000e+00 0.0000e+00
        6  2    1    2  501    0 +1.2993379490e+02 +6.3146524369e+01 +1.7429080811e+02 2.8472756840e+02 1.7269113416e+02 0.0000e+00 0.0000e+00
        5  1    4    4  501    0 +3.1511248023e+01 -4.0546951982e+00 -2.3791376443e+01 3.9968974195e+01 4.7000000000e+00 0.0000e+00 -1.0000e+00
       24  1    4    4    0    0 +9.8422546872e+01 +6.7201219567e+01 +1.9808218455e+02 2.4475859420e+02 8.0419002446e+01 0.0000e+00 0.0000e+00
       -5  1    3    3    0  503 -8.7100016517e+01 +2.7721700719e+01 +1.6482784997e+02 1.8853438863e+02 4.7000000000e+00 0.0000e+00 1.0000e+00
      -24  1    3    3    0    0 -4.2833778378e+01 -9.0868225088e+01 +1.3690946193e+02 1.8789141444e+02 8.0419002446e+01 0.0000e+00 1.0000e+00
<mgrwt>
<rscale>  2 0.22512689E+03</rscale>
<asrwt>0</asrwt>
<pdfrwt beam="1">  1       21 0.87475497E-01 0.22514996E+03</pdfrwt>
<pdfrwt beam="2">  1       21 0.14240404E-01 0.22514996E+03</pdfrwt>
<totfact> 0.47603406E+04</totfact>
</mgrwt>
<rwgt>
<wgt id='1'> +6.2177076e+02 </wgt>
<wgt id='2'> +5.2168548e+02 </wgt>
<wgt id='3'> +5.0429381e+02 </wgt>
<wgt id='4'> +6.5310231e+02 </wgt>
<wgt id='5'> +4.7836682e+02 </wgt>
<wgt id='6'> +5.8596577e+02 </wgt>
<wgt id='7'> +4.8588396e+02 </wgt>
<wgt id='8'> +4.6934632e+02 </wgt>
<wgt id='9'> +6.1796839e+02 </wgt>
<wgt id='10'> +4.4523944e+02 </wgt>
<wgt id='11'> +5.4537629e+02 </wgt>
<wgt id='12'> +4.5229514e+02 </wgt>
<wgt id='13'> +4.3693257e+02 </wgt>
<wgt id='14'> +5.7514328e+02 </wgt>
<wgt id='15'> +4.1454929e+02 </wgt>
<wgt id='16'> +5.1102143e+02 </wgt>
<wgt id='17'> +4.3835152e+02 </wgt>
<wgt id='18'> +4.2487317e+02 </wgt>
<wgt id='19'> +5.3296488e+02 </wgt>
<wgt id='20'> +4.0421966e+02 </wgt>
<wgt id='21'> +4.0826894e+02 </wgt>
<wgt id='22'> +3.9542953e+02 </wgt>
<wgt id='23'> +5.0429381e+02 </wgt>
<wgt id='24'> +3.7622705e+02 </wgt>
<wgt id='25'> +4.4823429e+02 </wgt>
<wgt id='26'> +3.8004559e+02 </wgt>
<wgt id='27'> +3.6812058e+02 </wgt>
<wgt id='28'> +4.6934632e+02 </wgt>
<wgt id='29'> +3.5029389e+02 </wgt>
<wgt id='30'> +4.3165569e+02 </wgt>
<wgt id='31'> +3.7367286e+02 </wgt>
<wgt id='32'> +3.6279828e+02 </wgt>
<wgt id='33'> +4.4902887e+02 </wgt>
<wgt id='34'> +3.4606186e+02 </wgt>
<wgt id='35'> +4.0679857e+02 </wgt>
<wgt id='36'> +3.4802895e+02 </wgt>
<wgt id='37'> +3.3765642e+02 </wgt>
<wgt id='38'> +4.2487317e+02 </wgt>
<wgt id='39'> +3.2209673e+02 </wgt>
<wgt id='40'> +3.7861990e+02 </wgt>
<wgt id='41'> +3.2396995e+02 </wgt>
<wgt id='42'> +3.1433737e+02 </wgt>
<wgt id='43'> +3.9542953e+02 </wgt>
<wgt id='44'> +2.9989475e+02 </wgt>
<wgt id='45'> +4.8159400e+02 </wgt>
<wgt id='46'> +4.8927207e+02 </wgt>
<wgt id='47'> +4.9702246e+02 </wgt>
<wgt id='48'> +4.8480104e+02 </wgt>
<wgt id='49'> +4.7536481e+02 </wgt>
<wgt id='50'> +5.6888145e+02 </wgt>
<wgt id='51'> +4.7045180e+02 </wgt>
<wgt id='52'> +4.8006670e+02 </wgt>
<wgt id='53'> +4.7865311e+02 </wgt>
<wgt id='54'> +4.8802698e+02 </wgt>
<wgt id='55'> +4.5066989e+02 </wgt>
<wgt id='56'> +4.4278215e+02 </wgt>
<wgt id='57'> +4.7990158e+02 </wgt>
<wgt id='58'> +4.7470411e+02 </wgt>
<wgt id='59'> +4.9304387e+02 </wgt>
<wgt id='60'> +4.7599035e+02 </wgt>
<wgt id='61'> +4.3386873e+02 </wgt>
<wgt id='62'> +4.7302949e+02 </wgt>
<wgt id='63'> +4.8345259e+02 </wgt>
<wgt id='64'> +4.7345080e+02 </wgt>
<wgt id='65'> +5.4135101e+02 </wgt>
<wgt id='66'> +4.7295569e+02 </wgt>
<wgt id='67'> +4.8482805e+02 </wgt>
<wgt id='68'> +5.2721515e+02 </wgt>
<wgt id='69'> +4.7879905e+02 </wgt>
<wgt id='70'> +4.7573569e+02 </wgt>
<wgt id='71'> +4.8701988e+02 </wgt>
<wgt id='72'> +4.6430017e+02 </wgt>
<wgt id='73'> +4.6854065e+02 </wgt>
<wgt id='74'> +5.0595528e+02 </wgt>
<wgt id='75'> +4.9284777e+02 </wgt>
<wgt id='76'> +4.7388815e+02 </wgt>
<wgt id='77'> +4.7019682e+02 </wgt>
<wgt id='78'> +4.6567907e+02 </wgt>
<wgt id='79'> +4.7317826e+02 </wgt>
<wgt id='80'> +4.7026025e+02 </wgt>
<wgt id='81'> +4.7320061e+02 </wgt>
<wgt id='82'> +4.7965683e+02 </wgt>
<wgt id='83'> +4.8825149e+02 </wgt>
<wgt id='84'> +5.1886058e+02 </wgt>
<wgt id='85'> +4.9356434e+02 </wgt>
<wgt id='86'> +4.8290161e+02 </wgt>
<wgt id='87'> +4.8388332e+02 </wgt>
<wgt id='88'> +4.8508822e+02 </wgt>
<wgt id='89'> +4.8780608e+02 </wgt>
<wgt id='90'> +4.8926644e+02 </wgt>
<wgt id='91'> +4.9688869e+02 </wgt>
<wgt id='92'> +4.4189923e+02 </wgt>
<wgt id='93'> +4.7798365e+02 </wgt>
<wgt id='94'> +4.7102219e+02 </wgt>
<wgt id='95'> +4.7250574e+02 </wgt>
<wgt id='96'> +5.1614103e+02 </wgt>
<wgt id='97'> +4.7902332e+02 </wgt>
<wgt id='98'> +4.6904935e+02 </wgt>
<wgt id='99'> +4.5911301e+02 </wgt>
<wgt id='100'> +4.5582590e+02 </wgt>
<wgt id='101'> +5.2436997e+02 </wgt>
<wgt id='102'> +4.8860370e+02 </wgt>
<wgt id='103'> +5.1786861e+02 </wgt>
<wgt id='104'> +4.8511085e+02 </wgt>
<wgt id='105'> +4.9757347e+02 </wgt>
<wgt id='106'> +4.4178622e+02 </wgt>
<wgt id='107'> +4.6384712e+02 </wgt>
<wgt id='108'> +4.2838241e+02 </wgt>
<wgt id='109'> +4.5416356e+02 </wgt>
<wgt id='110'> +4.7803744e+02 </wgt>
<wgt id='111'> +4.6888238e+02 </wgt>
<wgt id='112'> +4.5808197e+02 </wgt>
<wgt id='113'> +4.4715943e+02 </wgt>
<wgt id='114'> +4.7416002e+02 </wgt>
<wgt id='115'> +4.6318542e+02 </wgt>
<wgt id='116'> +4.9393333e+02 </wgt>
<wgt id='117'> +4.7909600e+02 </wgt>
<wgt id='118'> +5.0145871e+02 </wgt>
<wgt id='119'> +4.6946256e+02 </wgt>
<wgt id='120'> +4.7221029e+02 </wgt>
<wgt id='121'> +4.7162267e+02 </wgt>
<wgt id='122'> +4.7628010e+02 </wgt>
<wgt id='123'> +4.8499122e+02 </wgt>
<wgt id='124'> +5.2694660e+02 </wgt>
<wgt id='125'> +5.3150377e+02 </wgt>
<wgt id='126'> +4.9656007e+02 </wgt>
<wgt id='127'> +4.9367255e+02 </wgt>
<wgt id='128'> +4.4135651e+02 </wgt>
<wgt id='129'> +5.3887165e+02 </wgt>
<wgt id='130'> +4.7859646e+02 </wgt>
<wgt id='131'> +5.0374175e+02 </wgt>
<wgt id='132'> +4.9792594e+02 </wgt>
<wgt id='133'> +4.9080400e+02 </wgt>
<wgt id='134'> +4.6549854e+02 </wgt>
<wgt id='135'> +4.8896600e+02 </wgt>
<wgt id='136'> +4.8857832e+02 </wgt>
<wgt id='137'> +4.6070706e+02 </wgt>
<wgt id='138'> +4.5006898e+02 </wgt>
<wgt id='139'> +4.9446765e+02 </wgt>
<wgt id='140'> +4.9896424e+02 </wgt>
<wgt id='141'> +4.8794756e+02 </wgt>
<wgt id='142'> +4.5960414e+02 </wgt>
<wgt id='143'> +4.8771734e+02 </wgt>
<wgt id='144'> +4.7389023e+02 </wgt>
<wgt id='145'> +4.7911685e+02 </wgt>
</rwgt>
</event>
<event>
 8      1 +4.8159400e+02 2.59459900e+02 7.54677100e-03 1.10757000e-01
       21 -1    0    0  501  502 +0.0000000000e+00 +0.0000000000e+00 +1.8372684665e+02 1.8372684665e+02 0.0000000000e+00 0.0000e+00 1.0000e+00
       21 -1    0    0  502  503 -0.0000000000e+00 -0.0000000000e+00 -3.7655733988e+02 3.7655733988e+02 0.0000000000e+00 0.0000e+00 1.0000e+00
        6  2    1    2  501    0 -1.8973957586e+02 +3.7193335575e+01 -4.8205269986e+01 2.6323893996e+02 1.7200738530e+02 0.0000e+00 0.0000e+00
       -6  2    1    2    0  503 +1.8973957586e+02 -3.7193335575e+01 -1.4462522324e+02 2.9704524656e+02 1.7301726054e+02 0.0000e+00 0.0000e+00
        5  1    3    3  501    0 -1.1160220893e+02 -4.1922110836e+01 -5.1741360725e+00 1.1942101197e+02 4.7000000000e+00 0.0000e+00 -1.0000e+00
       24  1    3    3    0    0 -7.8137366929e+01 +7.9115446411e+01 -4.3031133913e+01 1.4381792799e+02 8.0419002446e+01 0.0000e+00 0.0000e+00
       -5  1    4    4    0  503 +3.6188300613e+01 +1.2155779644e+01 -1.0595383239e+02 1.1271938910e+02 4.7000000000e+00 0.0000e+00 1.0000e+00
      -24  1    4    4    0    0 +1.5355127525e+02 -4.9349115220e+01 -3.8671390849e+01 1.8432585746e+02 8.0419002446e+01 0.0000e+00 1.0000e+00
<mgrwt>
<rscale>  2 0.25929162E+03</rscale>
<asrwt>0</asrwt>
<pdfrwt beam="1">  1       21 0.28265669E-01 0.25945987E+03</pdfrwt>
<pdfrwt beam="2">  1       21 0.57931898E-01 0.25945987E+03</pdfrwt>
<totfact> 0.32353218E+04</totfact>
</mgrwt>
<rwgt>
<wgt id='1'> +6.2245721e+02 </wgt>
<wgt id='2'> +4.9865885e+02 </wgt>
<wgt id='3'> +4.9700798e+02 </wgt>
<wgt id='4'> +6.4370702e+02 </wgt>
<wgt id='5'> +4.7916494e+02 </wgt>
<wgt id='6'> +5.8167468e+02 </wgt>
<wgt id='7'> +4.6245268e+02 </wgt>
<wgt id='8'> +4.6092517e+02 </wgt>
<wgt id='9'> +6.0299386e+02 </wgt>
<wgt id='10'> +4.4442026e+02 </wgt>
<wgt id='11'> +5.3948937e+02 </wgt>
<wgt id='12'> +4.2928766e+02 </wgt>
<wgt id='13'> +4.2787698e+02 </wgt>
<wgt id='14'> +5.5921648e+02 </wgt>
<wgt id='15'> +4.1263559e+02 </wgt>
<wgt id='16'> +5.1535965e+02 </wgt>
<wgt id='17'> +4.2158818e+02 </wgt>
<wgt id='18'> +4.2027114e+02 </wgt>
<wgt id='19'> +5.3056514e+02 </wgt>
<wgt id='20'> +4.0600671e+02 </wgt>
<wgt id='21'> +3.9097789e+02 </wgt>
<wgt id='22'> +3.8975943e+02 </wgt>
<wgt id='23'> +4.9700798e+02 </wgt>
<wgt id='24'> +3.7656681e+02 </wgt>
<wgt id='25'> +4.4666693e+02 </wgt>
<wgt id='26'> +3.6293872e+02 </wgt>
<wgt id='27'> +3.6181380e+02 </wgt>
<wgt id='28'> +4.6092517e+02 </wgt>
<wgt id='29'> +3.4963498e+02 </wgt>
<wgt id='30'> +4.3655156e+02 </wgt>
<wgt id='31'> +3.6109406e+02 </wgt>
<wgt id='32'> +3.6002319e+02 </wgt>
<wgt id='33'> +4.4864716e+02 </wgt>
<wgt id='34'> +3.4840926e+02 </wgt>
<wgt id='35'> +4.0794931e+02 </wgt>
<wgt id='36'> +3.3487607e+02 </wgt>
<wgt id='37'> +3.3388549e+02 </wgt>
<wgt id='38'> +4.2027114e+02 </wgt>
<wgt id='39'> +3.2314580e+02 </wgt>
<wgt id='40'> +3.7836324e+02 </wgt>
<wgt id='41'> +3.1086027e+02 </wgt>
<wgt id='42'> +3.0994600e+02 </wgt>
<wgt id='43'> +3.8975943e+02 </wgt>
<wgt id='44'> +3.0003461e+02 </wgt>
<wgt id='45'> +4.8159400e+02 </wgt>
<wgt id='46'> +4.8682137e+02 </wgt>
<wgt id='47'> +5.0102217e+02 </wgt>
<wgt id='48'> +4.8597247e+02 </wgt>
<wgt id='49'> +4.7937570e+02 </wgt>
<wgt id='50'> +5.7412837e+02 </wgt>
<wgt id='51'> +4.7212558e+02 </wgt>
<wgt id='52'> +4.7972030e+02 </wgt>
<wgt id='53'> +4.8301022e+02 </wgt>
<wgt id='54'> +4.8493464e+02 </wgt>
<wgt id='55'> +4.3292028e+02 </wgt>
<wgt id='56'> +4.4316254e+02 </wgt>
<wgt id='57'> +4.7024187e+02 </wgt>
<wgt id='58'> +4.7918263e+02 </wgt>
<wgt id='59'> +4.8135630e+02 </wgt>
<wgt id='60'> +4.6769417e+02 </wgt>
<wgt id='61'> +4.5621046e+02 </wgt>
<wgt id='62'> +4.7578056e+02 </wgt>
<wgt id='63'> +4.8223697e+02 </wgt>
<wgt id='64'> +4.7276486e+02 </wgt>
<wgt id='65'> +5.6340673e+02 </wgt>
<wgt id='66'> +4.7174939e+02 </wgt>
<wgt id='67'> +4.8575569e+02 </wgt>
<wgt id='68'> +5.2230823e+02 </wgt>
<wgt id='69'> +4.7674043e+02 </wgt>
<wgt id='70'> +4.7323467e+02 </wgt>
<wgt id='71'> +4.8986352e+02 </wgt>
<wgt id='72'> +4.5986932e+02 </wgt>
<wgt id='73'> +4.7206823e+02 </wgt>
<wgt id='74'> +5.0181607e+02 </wgt>
<wgt id='75'> +4.9363912e+02 </wgt>
<wgt id='76'> +4.6747769e+02 </wgt>
<wgt id='77'> +4.6735512e+02 </wgt>
<wgt id='78'> +4.7488310e+02 </wgt>
<wgt id='79'> +4.6630270e+02 </wgt>
<wgt id='80'> +4.7479342e+02 </wgt>
<wgt id='81'> +4.7125501e+02 </wgt>
<wgt id='82'> +4.8989767e+02 </wgt>
<wgt id='83'> +4.9340105e+02 </wgt>
<wgt id='84'> +5.2971809e+02 </wgt>
<wgt id='85'> +5.0455888e+02 </wgt>
<wgt id='86'> +4.8188653e+02 </wgt>
<wgt id='87'> +4.8333020e+02 </wgt>
<wgt id='88'> +4.9071249e+02 </wgt>
<wgt id='89'> +4.9367732e+02 </wgt>
<wgt id='90'> +4.8855472e+02 </wgt>
<wgt id='91'> +5.0872851e+02 </wgt>
<wgt id='92'> +4.3557372e+02 </wgt>
<wgt id='93'> +4.7636712e+02 </wgt>
<wgt id='94'> +4.7475745e+02 </wgt>
<wgt id='95'> +4.6166584e+02 </wgt>
<wgt id='96'> +5.2515798e+02 </wgt>
<wgt id='97'> +4.8501921e+02 </wgt>
<wgt id='98'> +4.6211595e+02 </wgt>
<wgt id='99'> +4.6441383e+02 </wgt>
<wgt id='100'> +4.6737184e+02 </wgt>
<wgt id='101'> +5.1670594e+02 </wgt>
<wgt id='102'> +4.7806753e+02 </wgt>
<wgt id='103'> +5.2509119e+02 </wgt>
<wgt id='104'> +4.8398613e+02 </wgt>
<wgt id='105'> +4.9695872e+02 </wgt>
<wgt id='106'> +4.3637068e+02 </wgt>
<wgt id='107'> +4.6698450e+02 </wgt>
<wgt id='108'> +4.2507814e+02 </wgt>
<wgt id='109'> +4.4868209e+02 </wgt>
<wgt id='110'> +4.8009275e+02 </wgt>
<wgt id='111'> +4.6666046e+02 </wgt>
<wgt id='112'> +4.5575615e+02 </wgt>
<wgt id='113'> +4.3999328e+02 </wgt>
<wgt id='114'> +4.7266251e+02 </wgt>
<wgt id='115'> +4.7296200e+02 </wgt>
<wgt id='116'> +4.8934085e+02 </wgt>
<wgt id='117'> +4.8427317e+02 </wgt>
<wgt id='118'> +5.0022972e+02 </wgt>
<wgt id='119'> +4.6188664e+02 </wgt>
<wgt id='120'> +4.7441314e+02 </wgt>
<wgt id='121'> +4.6618178e+02 </wgt>
<wgt id='122'> +4.7467628e+02 </wgt>
<wgt id='123'> +4.8905882e+02 </wgt>
<wgt id='124'> +5.2282848e+02 </wgt>
<wgt id='125'> +5.2392599e+02 </wgt>
<wgt id='126'> +5.0211697e+02 </wgt>
<wgt id='127'> +4.9741760e+02 </wgt>
<wgt id='128'> +4.4323903e+02 </wgt>
<wgt id='129'> +5.4576912e+02 </wgt>
<wgt id='130'> +4.8591027e+02 </wgt>
<wgt id='131'> +5.1325275e+02 </wgt>
<wgt id='132'> +4.8363864e+02 </wgt>
<wgt id='133'> +4.8462902e+02 </wgt>
<wgt id='134'> +4.5599147e+02 </wgt>
<wgt id='135'> +4.9288358e+02 </wgt>
<wgt id='136'> +4.6895448e+02 </wgt>
<wgt id='137'> +4.5695607e+02 </wgt>
<wgt id='138'> +4.4581709e+02 </wgt>
<wgt id='139'> +4.9339841e+02 </wgt>
<wgt id='140'> +5.0711283e+02 </wgt>
<wgt id='141'> +4.8362355e+02 </wgt>
<wgt id='142'> +4.7528172e+02 </wgt>
<wgt id='143'> +4.8111700e+02 </wgt>
<wgt id='144'> +4.7672340e+02 </wgt>
<wgt id='145'> +4.8236594e+02 </wgt>
</rwgt>
</event>
<event>
 8      1 +4.8159400e+02 1.77367100e+02 7.54677100e-03 1.17111900e-01
       21 -1    0    0  501  502 +0.0000000000e+00 +0.0000000000e+00 +6.5803854321e+02 6.5803854321e+02 0.0000000000e+00 0.0000e+00 -1.0000e+00
       21 -1    0    0  502  503 -0.0000000000e+00 -0.0000000000e+00 -4.7255758090e+01 4.7255758090e+01 0.0000000000e+00 0.0000e+00 -1.0000e+00
       -6  2    1    2    0  503 +3.1069578063e+01 +3.0156612740e+01 +2.8234137447e+02 3.3343028774e+02 1.7200106124e+02 0.0000e+00 0.0000e+00
        6  2    1    2  501    0 -3.1069578063e+01 -3.0156612740e+01 +3.2844141065e+02 3.7186401356e+02 1.6892111881e+02 0.0000e+00 0.0000e+00
        5  1    4    4  501    0 -2.7470877720e+01 -3.9654136691e+01 +1.9128474267e+01 5.2106508300e+01 4.7000000000e+00 0.0000e+00 -1.0000e+00
       24  1    4    4    0    0 -3.5987003428e+00 +9.4975239506e+00 +3.0931293638e+02 3.1975750526e+02 8.0419002446e+01 0.0000e+00 0.0000e+00
       -5  1    3    3    0  503 +2.2005629046e+01 -1.1932763664e+01 -9.8672557809e+00 2.7314671790e+01 4.7000000000e+00 0.0000e+00 1.0000e+00
      -24  1    3    3    0    0 +9.0639490170e+00 +4.2089376404e+01 +2.9220863025e+02 3.0611561595e+02 8.0419002446e+01 0.0000e+00 0.0000e+00
<mgrwt>
<rscale>  2 0.17661611E+03</rscale>
<asrwt>0</asrwt>
<pdfrwt beam="1">  1       21 0.10123669E+00 0.17736715E+03</pdfrwt>
<pdfrwt beam="2">  1       21 0.72701171E-02 0.17736715E+03</pdfrwt>
<totfact> 0.11365042E+05</totfact>
</mgrwt>
<rwgt>
<wgt id='1'> +6.1693960e+02 </wgt>
<wgt id='2'> +6.9360575e+02 </wgt>
<wgt id='3'> +5.4701630e+02 </wgt>
<wgt id='4'> +7.0589285e+02 </wgt>
<wgt id='5'> +4.8200417e+02 </wgt>
<wgt id='6'> +5.9338939e+02 </wgt>
<wgt id='7'> +6.7049384e+02 </wgt>
<wgt id='8'> +5.2071644e+02 </wgt>
<wgt id='9'> +6.8282816e+02 </wgt>
<wgt id='10'> +4.5437618e+02 </wgt>
<wgt id='11'> +5.5932989e+02 </wgt>
<wgt id='12'> +6.3732378e+02 </wgt>
<wgt id='13'> +4.9005757e+02 </wgt>
<wgt id='14'> +6.4999864e+02 </wgt>
<wgt id='15'> +4.2737817e+02 </wgt>
<wgt id='16'> +5.0070732e+02 </wgt>
<wgt id='17'> +5.5656771e+02 </wgt>
<wgt id='18'> +4.5169933e+02 </wgt>
<wgt id='19'> +5.6549352e+02 </wgt>
<wgt id='20'> +4.0471137e+02 </wgt>
<wgt id='21'> +5.3802210e+02 </wgt>
<wgt id='22'> +4.2998219e+02 </wgt>
<wgt id='23'> +5.4701630e+02 </wgt>
<wgt id='24'> +3.8151373e+02 </wgt>
<wgt id='25'> +4.5395135e+02 </wgt>
<wgt id='26'> +5.1140556e+02 </wgt>
<wgt id='27'> +4.0466560e+02 </wgt>
<wgt id='28'> +5.2071644e+02 </wgt>
<wgt id='29'> +3.5884504e+02 </wgt>
<wgt id='30'> +4.2043709e+02 </wgt>
<wgt id='31'> +4.6068298e+02 </wgt>
<wgt id='32'> +3.8223233e+02 </wgt>
<wgt id='33'> +4.6695691e+02 </wgt>
<wgt id='34'> +3.4485287e+02 </wgt>
<wgt id='35'> +4.0438790e+02 </wgt>
<wgt id='36'> +4.4533238e+02 </wgt>
<wgt id='37'> +3.6385508e+02 </wgt>
<wgt id='38'> +4.5169933e+02 </wgt>
<wgt id='39'> +3.2508626e+02 </wgt>
<wgt id='40'> +3.8117675e+02 </wgt>
<wgt id='41'> +4.2330130e+02 </wgt>
<wgt id='42'> +3.4243193e+02 </wgt>
<wgt id='43'> +4.2998219e+02 </wgt>
<wgt id='44'> +3.0577036e+02 </wgt>
<wgt id='45'> +4.8159400e+02 </wgt>
<wgt id='46'> +4.8988917e+02 </wgt>
<wgt id='47'> +4.9243090e+02 </wgt>
<wgt id='48'> +4.8275629e+02 </wgt>
<wgt id='49'> +4.7374484e+02 </wgt>
<wgt id='50'> +5.5839747e+02 </wgt>
<wgt id='51'> +4.6969691e+02 </wgt>
<wgt id='52'> +4.8036544e+02 </wgt>
<wgt id='53'> +4.7548450e+02 </wgt>
<wgt id='54'> +4.8982049e+02 </wgt>
<wgt id='55'> +4.6346866e+02 </wgt>
<wgt id='56'> +4.4560244e+02 </wgt>
<wgt id='57'> +4.8571086e+02 </wgt>
<wgt id='58'> +4.7395485e+02 </wgt>
<wgt id='59'> +4.9971844e+02 </wgt>
<wgt id='60'> +4.8316184e+02 </wgt>
<wgt id='61'> +4.2910526e+02 </wgt>
<wgt id='62'> +4.7150702e+02 </wgt>
<wgt id='63'> +4.8494326e+02 </wgt>
<wgt id='64'> +4.7550297e+02 </wgt>
<wgt id='65'> +5.2187529e+02 </wgt>
<wgt id='66'> +4.7368954e+02 </wgt>
<wgt id='67'> +4.8401334e+02 </wgt>
<wgt id='68'> +5.2748950e+02 </wgt>
<wgt id='69'> +4.7763056e+02 </wgt>
<wgt id='70'> +4.7802117e+02 </wgt>
<wgt id='71'> +4.8417870e+02 </wgt>
<wgt id='72'> +4.6906871e+02 </wgt>
<wgt id='73'> +4.6785128e+02 </wgt>
<wgt id='74'> +5.0725766e+02 </wgt>
<wgt id='75'> +4.9143839e+02 </wgt>
<wgt id='76'> +4.7776518e+02 </wgt>
<wgt id='77'> +4.7233571e+02 </wgt>
<wgt id='78'> +4.6096275e+02 </wgt>
<wgt id='79'> +4.7819120e+02 </wgt>
<wgt id='80'> +4.6828789e+02 </wgt>
<wgt id='81'> +4.7517654e+02 </wgt>
<wgt id='82'> +4.7448397e+02 </wgt>
<wgt id='83'> +4.8309983e+02 </wgt>
<wgt id='84'> +5.0868517e+02 </wgt>
<wgt id='85'> +4.8665645e+02 </wgt>
<wgt id='86'> +4.8292346e+02 </wgt>
<wgt id='87'> +4.8410479e+02 </wgt>
<wgt id='88'> +4.8014839e+02 </wgt>
<wgt id='89'> +4.8420271e+02 </wgt>
<wgt id='90'> +4.8918518e+02 </wgt>
<wgt id='91'> +4.8888801e+02 </wgt>
<wgt id='92'> +4.4792567e+02 </wgt>
<wgt id='93'> +4.7925469e+02 </wgt>
<wgt id='94'> +4.6931839e+02 </wgt>
<wgt id='95'> +4.7954016e+02 </wgt>
<wgt id='96'> +5.0836688e+02 </wgt>
<wgt id='97'> +4.7523688e+02 </wgt>
<wgt id='98'> +4.7322674e+02 </wgt>
<wgt id='99'> +4.5759776e+02 </wgt>
<wgt id='100'> +4.5120940e+02 </wgt>
<wgt id='101'> +5.2654421e+02 </wgt>
<wgt id='102'> +4.9368581e+02 </wgt>
<wgt id='103'> +5.1174590e+02 </wgt>
<wgt id='104'> +4.8429005e+02 </wgt>
<wgt id='105'> +4.9782543e+02 </wgt>
<wgt id='106'> +4.4738836e+02 </wgt>
<wgt id='107'> +4.6405672e+02 </wgt>
<wgt id='108'> +4.3313888e+02 </wgt>
<wgt id='109'> +4.5951437e+02 </wgt>
<wgt id='110'> +4.7804579e+02 </wgt>
<wgt id='111'> +4.7029472e+02 </wgt>
<wgt id='112'> +4.6174457e+02 </wgt>
<wgt id='113'> +4.5368904e+02 </wgt>
<wgt id='114'> +4.7635988e+02 </wgt>
<wgt id='115'> +4.5690230e+02 </wgt>
<wgt id='116'> +4.9508521e+02 </wgt>
<wgt id='117'> +4.7567176e+02 </wgt>
<wgt id='118'> +5.0066932e+02 </wgt>
<wgt id='119'> +4.7567678e+02 </wgt>
<wgt id='120'> +4.7097123e+02 </wgt>
<wgt id='121'> +4.7639418e+02 </wgt>
<wgt id='122'> +4.7695658e+02 </wgt>
<wgt id='123'> +4.8120106e+02 </wgt>
<wgt id='124'> +5.2651224e+02 </wgt>
<wgt id='125'> +5.3379594e+02 </wgt>
<wgt id='126'> +4.9252103e+02 </wgt>
<wgt id='127'> +4.9065857e+02 </wgt>
<wgt id='128'> +4.4117317e+02 </wgt>
<wgt id='129'> +5.3200218e+02 </wgt>
<wgt id='130'> +4.7385564e+02 </wgt>
<wgt id='131'> +4.9755120e+02 </wgt>
<wgt id='132'> +5.0599266e+02 </wgt>
<wgt id='133'> +4.9387297e+02 </wgt>
<wgt id='134'> +4.7203351e+02 </wgt>
<wgt id='135'> +4.8652963e+02 </wgt>
<wgt id='136'> +5.0055924e+02 </wgt>
<wgt id='137'> +4.6250305e+02 </wgt>
<wgt id='138'> +4.5154178e+02 </wgt>
<wgt id='139'> +4.9516400e+02 </wgt>
<wgt id='140'> +4.9381727e+02 </wgt>
<wgt id='141'> +4.8991277e+02 </wgt>
<wgt id='142'> +4.5437907e+02 </wgt>
<wgt id='143'> +4.9168336e+02 </wgt>
<wgt id='144'> +4.7334403e+02 </wgt>
<wgt id='145'> +4.7565791e+02 </wgt>
</rwgt>
</event>
<event>
 8      1 +4.8159400e+02 2.14292800e+02 7.54677100e-03 1.13861400e-01
       21 -1    0    0  501  502 +0.0000000000e+00 +0.0000000000e+00 +1.6009894730e+02 1.6009894730e+02 0.0000000000e+00 0.0000e+00 1.0000e+00
       21 -1    0    0  502  503 -0.0000000000e+00 -0.0000000000e+00 -4.0322336263e+02 4.0322336263e+02 0.0000000000e+00 0.0000e+00 1.0000e+00
        6  2    1    2  501    0 +1.0958627186e+02 -5.5078204534e+01 +3.1973637612e+01 2.1460991288e+02 1.7318297148e+02 0.0000e+00 0.0000e+00
       -6  2    1    2    0  503 -1.0958627186e+02 +5.5078204534e+01 -2.7509805294e+02 3.4871239705e+02 1.7572318438e+02 0.0000e+00 0.0000e+00
        5  1    3    3  501    0 +4.4774152257e+01 +4.2456270649e+01 +3.7653769219e+01 7.2437255360e+01 4.7000000000e+00 0.0000e+00 -1.0000e+00
       24  1    3    3    0    0 +6.4812119606e+01 -9.7534475183e+01 -5.6801316065e+00 1.4217265752e+02 8.0419002446e+01 0.0000e+00 1.0000e+00
       -5  1    4    4    0  503 -1.2085107774e+02 +5.4494860995e+01 -1.5974066537e+02 2.0763873203e+02 4.7000000000e+00 0.0000e+00 1.0000e+00
      -24  1    4    4    0    0 +1.1264805879e+01 +5.8334353934e-01 -1.1535738757e+02 1.4107366502e+02 8.0419002446e+01 0.0000e+00 -1.0000e+00
<mgrwt>
<rscale>  2 0.21377138E+03</rscale>
<asrwt>0</asrwt>
<pdfrwt beam="1">  1       21 0.24630607E-01 0.21429278E+03</pdfrwt>
<pdfrwt beam="2">  1       21 0.62034363E-01 0.21429278E+03</pdfrwt>
<totfact> 0.37162539E+04</totfact>
</mgrwt>
<rwgt>
<wgt id='1'> +6.2418652e+02 </wgt>
<wgt id='2'> +5.1817985e+02 </wgt>
<wgt id='3'> +4.8576331e+02 </wgt>
<wgt id='4'> +6.2991570e+02 </wgt>
<wgt id='5'> +4.5271915e+02 </wgt>
<wgt id='6'> +5.8765851e+02 </wgt>
<wgt id='7'> +4.8175209e+02 </wgt>
<wgt id='8'> +4.5115333e+02 </wgt>
<wgt id='9'> +5.9352110e+02 </wgt>
<wgt id='10'> +4.2057042e+02 </wgt>
<wgt id='11'> +5.4581243e+02 </wgt>
<wgt id='12'> +4.4767757e+02 </wgt>
<wgt id='13'> +4.1934166e+02 </wgt>
<wgt id='14'> +5.5123353e+02 </wgt>
<wgt id='15'> +3.9103547e+02 </wgt>
<wgt id='16'> +5.1152920e+02 </wgt>
<wgt id='17'> +4.3498189e+02 </wgt>
<wgt id='18'> +4.0973945e+02 </wgt>
<wgt id='19'> +5.1555022e+02 </wgt>
<wgt id='20'> +3.8333537e+02 </wgt>
<wgt id='21'> +4.0440290e+02 </wgt>
<wgt id='22'> +3.8054607e+02 </wgt>
<wgt id='23'> +4.8576331e+02 </wgt>
<wgt id='24'> +3.5611375e+02 </wgt>
<wgt id='25'> +4.4730058e+02 </wgt>
<wgt id='26'> +3.7579932e+02 </wgt>
<wgt id='27'> +3.5371305e+02 </wgt>
<wgt id='28'> +4.5115333e+02 </wgt>
<wgt id='29'> +3.3110534e+02 </wgt>
<wgt id='30'> +4.3166590e+02 </wgt>
<wgt id='31'> +3.7059731e+02 </wgt>
<wgt id='32'> +3.5021167e+02 </wgt>
<wgt id='33'> +4.3486459e+02 </wgt>
<wgt id='34'> +3.2876171e+02 </wgt>
<wgt id='35'> +4.0640438e+02 </wgt>
<wgt id='36'> +3.4454452e+02 </wgt>
<wgt id='37'> +3.2525957e+02 </wgt>
<wgt id='38'> +4.0973945e+02 </wgt>
<wgt id='39'> +3.0541550e+02 </wgt>
<wgt id='40'> +3.7746508e+02 </wgt>
<wgt id='41'> +3.2017474e+02 </wgt>
<wgt id='42'> +3.0232491e+02 </wgt>
<wgt id='43'> +3.8054607e+02 </wgt>
<wgt id='44'> +2.8396742e+02 </wgt>
<wgt id='45'> +4.8159400e+02 </wgt>
<wgt id='46'> +4.8609680e+02 </wgt>
<wgt id='47'> +5.0021813e+02 </wgt>
<wgt id='48'> +4.8530879e+02 </wgt>
<wgt id='49'> +4.7938823e+02 </wgt>
<wgt id='50'> +5.7223735e+02 </wgt>
<wgt id='51'> +4.7197816e+02 </wgt>
<wgt id='52'> +4.7992523e+02 </wgt>
<wgt id='53'> +4.8323161e+02 </wgt>
<wgt id='54'> +4.8503612e+02 </wgt>
<wgt id='55'> +4.3345301e+02 </wgt>
<wgt id='56'> +4.4339758e+02 </wgt>
<wgt id='57'> +4.7081931e+02 </wgt>
<wgt id='58'> +4.8009621e+02 </wgt>
<wgt id='59'> +4.8132878e+02 </wgt>
<wgt id='60'> +4.6745678e+02 </wgt>
<wgt id='61'> +4.5578278e+02 </wgt>
<wgt id='62'> +4.7547613e+02 </wgt>
<wgt id='63'> +4.8214565e+02 </wgt>
<wgt id='64'> +4.7349366e+02 </wgt>
<wgt id='65'> +5.6323145e+02 </wgt>
<wgt id='66'> +4.7120001e+02 </wgt>
<wgt id='67'> +4.8569355e+02 </wgt>
<wgt id='68'> +5.2178360e+02 </wgt>
<wgt id='69'> +4.7510126e+02 </wgt>
<wgt id='70'> +4.7319212e+02 </wgt>
<wgt id='71'> +4.9003703e+02 </wgt>
<wgt id='72'> +4.6208618e+02 </wgt>
<wgt id='73'> +4.7250401e+02 </wgt>
<wgt id='74'> +5.0112824e+02 </wgt>
<wgt id='75'> +4.9318843e+02 </wgt>
<wgt id='76'> +4.6793534e+02 </wgt>
<wgt id='77'> +4.6697490e+02 </wgt>
<wgt id='78'> +4.7539154e+02 </wgt>
<wgt id='79'> +4.6575756e+02 </wgt>
<wgt id='80'> +4.7489564e+02 </wgt>
<wgt id='81'> +4.7145545e+02 </wgt>
<wgt id='82'> +4.8985015e+02 </wgt>
<wgt id='83'> +4.9259616e+02 </wgt>
<wgt id='84'> +5.2906099e+02 </wgt>
<wgt id='85'> +5.0443094e+02 </wgt>
<wgt id='86'> +4.8112617e+02 </wgt>
<wgt id='87'> +4.8317356e+02 </wgt>
<wgt id='88'> +4.8993413e+02 </wgt>
<wgt id='89'> +4.9367805e+02 </wgt>
<wgt id='90'> +4.8878413e+02 </wgt>
<wgt id='91'> +5.0881548e+02 </wgt>
<wgt id='92'> +4.3724449e+02 </wgt>
<wgt id='93'> +4.7583796e+02 </wgt>
<wgt id='94'> +4.7534597e+02 </wgt>
<wgt id='95'> +4.6259576e+02 </wgt>
<wgt id='96'> +5.2372401e+02 </wgt>
<wgt id='97'> +4.8543057e+02 </wgt>
<wgt id='98'> +4.6178215e+02 </wgt>
<wgt id='99'> +4.6468311e+02 </wgt>
<wgt id='100'> +4.6853450e+02 </wgt>
<wgt id='101'> +5.1568230e+02 </wgt>
<wgt id='102'> +4.7678560e+02 </wgt>
<wgt id='103'> +5.2491902e+02 </wgt>
<wgt id='104'> +4.8316809e+02 </wgt>
<wgt id='105'> +4.9804577e+02 </wgt>
<wgt id='106'> +4.3761909e+02 </wgt>
<wgt id='107'> +4.6819186e+02 </wgt>
<wgt id='108'> +4.2577598e+02 </wgt>
<wgt id='109'> +4.4953331e+02 </wgt>
<wgt id='110'> +4.8065145e+02 </wgt>
<wgt id='111'> +4.6719355e+02 </wgt>
<wgt id='112'> +4.5604732e+02 </wgt>
<wgt id='113'> +4.4038438e+02 </wgt>
<wgt id='114'> +4.7408712e+02 </wgt>
<wgt id='115'> +4.7339177e+02 </wgt>
<wgt id='116'> +4.8806172e+02 </wgt>
<wgt id='117'> +4.8442342e+02 </wgt>
<wgt id='118'> +4.9932957e+02 </wgt>
<wgt id='119'> +4.6241420e+02 </wgt>
<wgt id='120'> +4.7469809e+02 </wgt>
<wgt id='121'> +4.6708796e+02 </wgt>
<wgt id='122'> +4.7497767e+02 </wgt>
<wgt id='123'> +4.8845659e+02 </wgt>
<wgt id='124'> +5.2202850e+02 </wgt>
<wgt id='125'> +5.2320804e+02 </wgt>
<wgt id='126'> +5.0139630e+02 </wgt>
<wgt id='127'> +4.9712808e+02 </wgt>
<wgt id='128'> +4.4297421e+02 </wgt>
<wgt id='129'> +5.4612498e+02 </wgt>
<wgt id='130'> +4.8484352e+02 </wgt>
<wgt id='131'> +5.1349046e+02 </wgt>
<wgt id='132'> +4.8390715e+02 </wgt>
<wgt id='133'> +4.8390255e+02 </wgt>
<wgt id='134'> +4.5590878e+02 </wgt>
<wgt id='135'> +4.9308426e+02 </wgt>
<wgt id='136'> +4.6932209e+02 </wgt>
<wgt id='137'> +4.5598719e+02 </wgt>
<wgt id='138'> +4.4370893e+02 </wgt>
<wgt id='139'> +4.9327106e+02 </wgt>
<wgt id='140'> +5.0767098e+02 </wgt>
<wgt id='141'> +4.8314262e+02 </wgt>
<wgt id='142'> +4.7581002e+02 </wgt>
<wgt id='143'> +4.8115162e+02 </wgt>
<wgt id='144'> +4.7754167e+02 </wgt>
<wgt id='145'> +4.8233259e+02 </wgt>
</rwgt>
</event>
<event>
 8      1 +4.8159400e+02 1.93932300e+02 7.54677100e-03 1.15586600e-01
       21 -1    0    0  503  502 +0.0000000000e+00 +0.0000000000e+00 +5.5733574883e+01 5.5733574883e+01 0.0000000000e+00 0.0000e+00 1.0000e+00
       21 -1    0    0  501  503 -0.0000000000e+00 -0.0000000000e+00 -7.0037346740e+02 7.0037346740e+02 0.0000000000e+00 0.0000e+00 1.0000e+00
        6  2    1    2  501    0 +8.8353552466e+00 +8.6075060588e+01 -4.0904100430e+02 4.5095694840e+02 1.6899895429e+02 0.0000e+00 0.0000e+00
       -6  2    1    2    0  502 -8.8353552466e+00 -8.6075060588e+01 -2.3559888822e+02 3.0515009389e+02 1.7355910841e+02 0.0000e+00 0.0000e+00
        5  1    3    3  501    0 -2.3549317438e+01 +2.1511797386e+00 +3.9330309245e-01 2.4113121187e+01 4.7000000000e+00 0.0000e+00 -1.0000e+00
       24  1    3    3    0    0 +3.2384672685e+01 +8.3923880849e+01 -4.0943430740e+02 4.2684382721e+02 8.0419002446e+01 0.0000e+00 0.0000e+00
       -5  1    4    4    0  502 +5.7817819745e+01 -2.8618148896e+01 -1.3288933153e+02 1.4779568046e+02 4.7000000000e+00 0.0000e+00 1.0000e+00
      -24  1    4    4    0    0 -6.6653174992e+01 -5.7456911692e+01 -1.0270955669e+02 1.5735441343e+02 8.0419002446e+01 0.0000e+00 1.0000e+00
<mgrwt>
<rscale>  2 0.19290666E+03</rscale>
<asrwt>0</asrwt>
<pdfrwt beam="1">  1       21 0.85743965E-02 0.19393232E+03</pdfrwt>
<pdfrwt beam="2">  1       21 0.10774976E+00 0.19393232E+03</pdfrwt>
<totfact> 0.72960066E+04</totfact>
</mgrwt>
<rwgt>
<wgt id='1'> +6.2095761e+02 </wgt>
<wgt id='2'> +5.3897875e+02 </wgt>
<wgt id='3'> +5.1026974e+02 </wgt>
<wgt id='4'> +6.6016310e+02 </wgt>
<wgt id='5'> +4.7775228e+02 </wgt>
<wgt id='6'> +5.9093567e+02 </wgt>
<wgt id='7'> +5.0690935e+02 </wgt>
<wgt id='8'> +4.7800636e+02 </wgt>
<wgt id='9'> +6.3067867e+02 </wgt>
<wgt id='10'> +4.4654147e+02 </wgt>
<wgt id='11'> +5.5239321e+02 </wgt>
<wgt id='12'> +4.7365252e+02 </wgt>
<wgt id='13'> +4.4661239e+02 </wgt>
<wgt id='14'> +5.9080206e+02 </wgt>
<wgt id='15'> +4.1720351e+02 </wgt>
<wgt id='16'> +5.0606093e+02 </wgt>
<wgt id='17'> +4.4822344e+02 </wgt>
<wgt id='18'> +4.2735530e+02 </wgt>
<wgt id='19'> +5.3412501e+02 </wgt>
<wgt id='20'> +4.0248776e+02 </wgt>
<wgt id='21'> +4.2155401e+02 </wgt>
<wgt id='22'> +4.0033444e+02 </wgt>
<wgt id='23'> +5.1026974e+02 </wgt>
<wgt id='24'> +3.7619386e+02 </wgt>
<wgt id='25'> +4.5018310e+02 </wgt>
<wgt id='26'> +3.9389709e+02 </wgt>
<wgt id='27'> +3.7404172e+02 </wgt>
<wgt id='28'> +4.7800636e+02 </wgt>
<wgt id='29'> +3.5147777e+02 </wgt>
<wgt id='30'> +4.2606932e+02 </wgt>
<wgt id='31'> +3.8032782e+02 </wgt>
<wgt id='32'> +3.6366716e+02 </wgt>
<wgt id='33'> +4.4733430e+02 </wgt>
<wgt id='34'> +3.4366846e+02 </wgt>
<wgt id='35'> +4.0546980e+02 </wgt>
<wgt id='36'> +3.5769820e+02 </wgt>
<wgt id='37'> +3.4067317e+02 </wgt>
<wgt id='38'> +4.2735530e+02 </wgt>
<wgt id='39'> +3.2121714e+02 </wgt>
<wgt id='40'> +3.7902393e+02 </wgt>
<wgt id='41'> +3.3423067e+02 </wgt>
<wgt id='42'> +3.1829882e+02 </wgt>
<wgt id='43'> +4.0033444e+02 </wgt>
<wgt id='44'> +3.0011304e+02 </wgt>
<wgt id='45'> +4.8159400e+02 </wgt>
<wgt id='46'> +4.9116796e+02 </wgt>
<wgt id='47'> +4.9335113e+02 </wgt>
<wgt id='48'> +4.8310827e+02 </wgt>
<wgt id='49'> +4.7165515e+02 </wgt>
<wgt id='50'> +5.6311462e+02 </wgt>
<wgt id='51'> +4.6854127e+02 </wgt>
<wgt id='52'> +4.7920133e+02 </wgt>
<wgt id='53'> +4.7531662e+02 </wgt>
<wgt id='54'> +4.9138623e+02 </wgt>
<wgt id='55'> +4.6687838e+02 </wgt>
<wgt id='56'> +4.4448212e+02 </wgt>
<wgt id='57'> +4.8764431e+02 </wgt>
<wgt id='58'> +4.7049454e+02 </wgt>
<wgt id='59'> +5.0226420e+02 </wgt>
<wgt id='60'> +4.8304368e+02 </wgt>
<wgt id='61'> +4.2474666e+02 </wgt>
<wgt id='62'> +4.7008898e+02 </wgt>
<wgt id='63'> +4.8587833e+02 </wgt>
<wgt id='64'> +4.7517964e+02 </wgt>
<wgt id='65'> +5.1986390e+02 </wgt>
<wgt id='66'> +4.7442703e+02 </wgt>
<wgt id='67'> +4.8397378e+02 </wgt>
<wgt id='68'> +5.3132669e+02 </wgt>
<wgt id='69'> +4.8101305e+02 </wgt>
<wgt id='70'> +4.7910501e+02 </wgt>
<wgt id='71'> +4.8276581e+02 </wgt>
<wgt id='72'> +4.6642205e+02 </wgt>
<wgt id='73'> +4.6496962e+02 </wgt>
<wgt id='74'> +5.1029116e+02 </wgt>
<wgt id='75'> +4.9291738e+02 </wgt>
<wgt id='76'> +4.7888205e+02 </wgt>
<wgt id='77'> +4.7188969e+02 </wgt>
<wgt id='78'> +4.5740170e+02 </wgt>
<wgt id='79'> +4.7996981e+02 </wgt>
<wgt id='80'> +4.6585542e+02 </wgt>
<wgt id='81'> +4.7558800e+02 </wgt>
<wgt id='82'> +4.7239154e+02 </wgt>
<wgt id='83'> +4.8339203e+02 </wgt>
<wgt id='84'> +5.0824968e+02 </wgt>
<wgt id='85'> +4.8385188e+02 </wgt>
<wgt id='86'> +4.8443800e+02 </wgt>
<wgt id='87'> +4.8401336e+02 </wgt>
<wgt id='88'> +4.8015108e+02 </wgt>
<wgt id='89'> +4.8090203e+02 </wgt>
<wgt id='90'> +4.8781590e+02 </wgt>
<wgt id='91'> +4.8530563e+02 </wgt>
<wgt id='92'> +4.4635913e+02 </wgt>
<wgt id='93'> +4.7973769e+02 </wgt>
<wgt id='94'> +4.6691514e+02 </wgt>
<wgt id='95'> +4.8134685e+02 </wgt>
<wgt id='96'> +5.0916891e+02 </wgt>
<wgt id='97'> +4.7285921e+02 </wgt>
<wgt id='98'> +4.7559297e+02 </wgt>
<wgt id='99'> +4.5375727e+02 </wgt>
<wgt id='100'> +4.4460461e+02 </wgt>
<wgt id='101'> +5.3072832e+02 </wgt>
<wgt id='102'> +4.9799867e+02 </wgt>
<wgt id='103'> +5.1017202e+02 </wgt>
<wgt id='104'> +4.8667738e+02 </wgt>
<wgt id='105'> +4.9741706e+02 </wgt>
<wgt id='106'> +4.4662772e+02 </wgt>
<wgt id='107'> +4.6192653e+02 </wgt>
<wgt id='108'> +4.3229978e+02 </wgt>
<wgt id='109'> +4.5952814e+02 </wgt>
<wgt id='110'> +4.7571684e+02 </wgt>
<wgt id='111'> +4.7017152e+02 </wgt>
<wgt id='112'> +4.6287998e+02 </wgt>
<wgt id='113'> +4.5479532e+02 </wgt>
<wgt id='114'> +4.7669408e+02 </wgt>
<wgt id='115'> +4.5530497e+02 </wgt>
<wgt id='116'> +4.9833223e+02 </wgt>
<wgt id='117'> +4.7498850e+02 </wgt>
<wgt id='118'> +5.0200044e+02 </wgt>
<wgt id='119'> +4.7762809e+02 </wgt>
<wgt id='120'> +4.7192585e+02 </wgt>
<wgt id='121'> +4.7622020e+02 </wgt>
<wgt id='122'> +4.7669790e+02 </wgt>
<wgt id='123'> +4.8096714e+02 </wgt>
<wgt id='124'> +5.2982620e+02 </wgt>
<wgt id='125'> +5.3903999e+02 </wgt>
<wgt id='126'> +4.9182643e+02 </wgt>
<wgt id='127'> +4.8965944e+02 </wgt>
<wgt id='128'> +4.4131098e+02 </wgt>
<wgt id='129'> +5.3122446e+02 </wgt>
<wgt id='130'> +4.7351714e+02 </wgt>
<wgt id='131'> +4.9480070e+02 </wgt>
<wgt id='132'> +5.0863468e+02 </wgt>
<wgt id='133'> +4.9655833e+02 </wgt>
<wgt id='134'> +4.7379053e+02 </wgt>
<wgt id='135'> +4.8506498e+02 </wgt>
<wgt id='136'> +5.0544412e+02 </wgt>
<wgt id='137'> +4.6463489e+02 </wgt>
<wgt id='138'> +4.5477184e+02 </wgt>
<wgt id='139'> +4.9549302e+02 </wgt>
<wgt id='140'> +4.9198440e+02 </wgt>
<wgt id='141'> +4.9308335e+02 </wgt>
<wgt id='142'> +4.4717719e+02 </wgt>
<wgt id='143'> +4.9239155e+02 </wgt>
<wgt id='144'> +4.7050910e+02 </wgt>
<wgt id='145'> +4.7410038e+02 </wgt>
</rwgt>
</event>
<event>
 8      1 +4.8159400e+02 1.97265800e+02 7.54677100e-03 1.15227900e-01
       21 -1    0    0  503  502 +0.0000000000e+00 +0.0000000000e+00 +1.3820176626e+02 1.3820176626e+02 0.0000000000e+00 0.0000e+00 1.0000e+00
       21 -1    0    0  501  503 -0.0000000000e+00 -0.0000000000e+00 -2.8048869820e+02 2.8048869820e+02 0.0000000000e+00 0.0000e+00 1.0000e+00
        6  2    1    2  501    0 -5.9591233430e+01 -7.3244257731e+01 -7.8096971196e+01 2.1124377005e+02 1.7207253437e+02 0.0000e+00 0.0000e+00
       -6  2    1    2    0  502 +5.9591233430e+01 +7.3244257731e+01 -6.4189960739e+01 2.0744669441e+02 1.7319914425e+02 0.0000e+00 0.0000e+00
        5  1    3    3  501    0 +7.8069872871e+00 -5.1681363239e+01 +2.8841231522e+01 5.9881708329e+01 4.7000000000e+00 0.0000e+00 -1.0000e+00
       24  1    3    3    0    0 -6.7398220717e+01 -2.1562894492e+01 -1.0693820272e+02 1.5136206173e+02 8.0419002446e+01 0.0000e+00 1.0000e+00
       -5  1    4    4    0  502 +7.4897791555e+01 +2.6108459268e+01 -7.8747224788e+01 1.1186843271e+02 4.7000000000e+00 0.0000e+00 1.0000e+00
      -24  1    4    4    0    0 -1.5306558125e+01 +4.7135798463e+01 +1.4557264050e+01 9.5578261699e+01 8.0419002446e+01 0.0000e+00 1.0000e+00
<mgrwt>
<rscale>  2 0.19701819E+03</rscale>
<asrwt>0</asrwt>
<pdfrwt beam="1">  1       21 0.21261810E-01 0.19726576E+03</pdfrwt>
<pdfrwt beam="2">  1       21 0.43152107E-01 0.19726576E+03</pdfrwt>
<totfact> 0.10609093E+05</totfact>
</mgrwt>
<rwgt>
<wgt id='1'> +6.1353165e+02 </wgt>
<wgt id='2'> +5.2458430e+02 </wgt>
<wgt id='3'> +5.0983109e+02 </wgt>
<wgt id='4'> +6.5176428e+02 </wgt>
<wgt id='5'> +4.8175008e+02 </wgt>
<wgt id='6'> +5.9031176e+02 </wgt>
<wgt id='7'> +4.9762428e+02 </wgt>
<wgt id='8'> +4.8271753e+02 </wgt>
<wgt id='9'> +6.2976641e+02 </wgt>
<wgt id='10'> +4.5516640e+02 </wgt>
<wgt id='11'> +5.5773076e+02 </wgt>
<wgt id='12'> +4.6979721e+02 </wgt>
<wgt id='13'> +4.5567457e+02 </wgt>
<wgt id='14'> +5.9627452e+02 </wgt>
<wgt id='15'> +4.2959221e+02 </wgt>
<wgt id='16'> +5.0053748e+02 </wgt>
<wgt id='17'> +4.3805866e+02 </wgt>
<wgt id='18'> +4.2722936e+02 </wgt>
<wgt id='19'> +5.2763959e+02 </wgt>
<wgt id='20'> +4.0582056e+02 </wgt>
<wgt id='21'> +4.1554546e+02 </wgt>
<wgt id='22'> +4.0450869e+02 </wgt>
<wgt id='23'> +5.0983109e+02 </wgt>
<wgt id='24'> +3.8342678e+02 </wgt>
<wgt id='25'> +4.5501344e+02 </wgt>
<wgt id='26'> +3.9230823e+02 </wgt>
<wgt id='27'> +3.8184716e+02 </wgt>
<wgt id='28'> +4.8271753e+02 </wgt>
<wgt id='29'> +3.6188339e+02 </wgt>
<wgt id='30'> +4.2165396e+02 </wgt>
<wgt id='31'> +3.7229580e+02 </wgt>
<wgt id='32'> +3.6366042e+02 </wgt>
<wgt id='33'> +4.4215257e+02 </wgt>
<wgt id='34'> +3.4649246e+02 </wgt>
<wgt id='35'> +4.0569593e+02 </wgt>
<wgt id='36'> +3.5316236e+02 </wgt>
<wgt id='37'> +3.4432043e+02 </wgt>
<wgt id='38'> +4.2722936e+02 </wgt>
<wgt id='39'> +3.2737249e+02 </wgt>
<wgt id='40'> +3.8330441e+02 </wgt>
<wgt id='41'> +3.3341358e+02 </wgt>
<wgt id='42'> +3.2503080e+02 </wgt>
<wgt id='43'> +4.0450869e+02 </wgt>
<wgt id='44'> +3.0897859e+02 </wgt>
<wgt id='45'> +4.8159400e+02 </wgt>
<wgt id='46'> +4.7928805e+02 </wgt>
<wgt id='47'> +4.9698058e+02 </wgt>
<wgt id='48'> +4.8141631e+02 </wgt>
<wgt id='49'> +4.8076389e+02 </wgt>
<wgt id='50'> +5.5392059e+02 </wgt>
<wgt id='51'> +4.7240049e+02 </wgt>
<wgt id='52'> +4.7831277e+02 </wgt>
<wgt id='53'> +4.8905511e+02 </wgt>
<wgt id='54'> +4.8430263e+02 </wgt>
<wgt id='55'> +4.3190315e+02 </wgt>
<wgt id='56'> +4.5127070e+02 </wgt>
<wgt id='57'> +4.6909059e+02 </wgt>
<wgt id='58'> +4.8708803e+02 </wgt>
<wgt id='59'> +4.7219367e+02 </wgt>
<wgt id='60'> +4.6003093e+02 </wgt>
<wgt id='61'> +4.7405261e+02 </wgt>
<wgt id='62'> +4.7487875e+02 </wgt>
<wgt id='63'> +4.8203243e+02 </wgt>
<wgt id='64'> +4.7942762e+02 </wgt>
<wgt id='65'> +5.6670092e+02 </wgt>
<wgt id='66'> +4.6986309e+02 </wgt>
<wgt id='67'> +4.8592503e+02 </wgt>
<wgt id='68'> +5.1250754e+02 </wgt>
<wgt id='69'> +4.6685018e+02 </wgt>
<wgt id='70'> +4.7427405e+02 </wgt>
<wgt id='71'> +4.9076502e+02 </wgt>
<wgt id='72'> +4.7294401e+02 </wgt>
<wgt id='73'> +4.7654902e+02 </wgt>
<wgt id='74'> +4.9303840e+02 </wgt>
<wgt id='75'> +4.9137942e+02 </wgt>
<wgt id='76'> +4.6849987e+02 </wgt>
<wgt id='77'> +4.6272613e+02 </wgt>
<wgt id='78'> +4.8460540e+02 </wgt>
<wgt id='79'> +4.6077567e+02 </wgt>
<wgt id='80'> +4.7855055e+02 </wgt>
<wgt id='81'> +4.7391057e+02 </wgt>
<wgt id='82'> +4.9580005e+02 </wgt>
<wgt id='83'> +4.9000597e+02 </wgt>
<wgt id='84'> +5.2675985e+02 </wgt>
<wgt id='85'> +5.0627525e+02 </wgt>
<wgt id='86'> +4.7692864e+02 </wgt>
<wgt id='87'> +4.8069359e+02 </wgt>
<wgt id='88'> +4.8897023e+02 </wgt>
<wgt id='89'> +4.9156926e+02 </wgt>
<wgt id='90'> +4.8605454e+02 </wgt>
<wgt id='91'> +5.1268062e+02 </wgt>
<wgt id='92'> +4.4839417e+02 </wgt>
<wgt id='93'> +4.7204033e+02 </wgt>
<wgt id='94'> +4.8092402e+02 </wgt>
<wgt id='95'> +4.6343378e+02 </wgt>
<wgt id='96'> +5.1637969e+02 </wgt>
<wgt id='97'> +4.9043086e+02 </wgt>
<wgt id='98'> +4.5923023e+02 </wgt>
<wgt id='99'> +4.6882459e+02 </wgt>
<wgt id='100'> +4.8220486e+02 </wgt>
<wgt id='101'> +5.0042066e+02 </wgt>
<wgt id='102'> +4.6366526e+02 </wgt>
<wgt id='103'> +5.2016334e+02 </wgt>
<wgt id='104'> +4.7941092e+02 </wgt>
<wgt id='105'> +5.0216995e+02 </wgt>
<wgt id='106'> +4.4779716e+02 </wgt>
<wgt id='107'> +4.8000295e+02 </wgt>
<wgt id='108'> +4.3639690e+02 </wgt>
<wgt id='109'> +4.5541707e+02 </wgt>
<wgt id='110'> +4.8335525e+02 </wgt>
<wgt id='111'> +4.7071786e+02 </wgt>
<wgt id='112'> +4.6225817e+02 </wgt>
<wgt id='113'> +4.4477896e+02 </wgt>
<wgt id='114'> +4.8460006e+02 </wgt>
<wgt id='115'> +4.8674048e+02 </wgt>
<wgt id='116'> +4.7739101e+02 </wgt>
<wgt id='117'> +4.8939769e+02 </wgt>
<wgt id='118'> +4.9012230e+02 </wgt>
<wgt id='119'> +4.6451021e+02 </wgt>
<wgt id='120'> +4.8227377e+02 </wgt>
<wgt id='121'> +4.6958918e+02 </wgt>
<wgt id='122'> +4.7596315e+02 </wgt>
<wgt id='123'> +4.8668167e+02 </wgt>
<wgt id='124'> +5.0932862e+02 </wgt>
<wgt id='125'> +5.1094713e+02 </wgt>
<wgt id='126'> +4.9820342e+02 </wgt>
<wgt id='127'> +4.9426616e+02 </wgt>
<wgt id='128'> +4.4993905e+02 </wgt>
<wgt id='129'> +5.4294918e+02 </wgt>
<wgt id='130'> +4.8444426e+02 </wgt>
<wgt id='131'> +5.1548488e+02 </wgt>
<wgt id='132'> +4.7397580e+02 </wgt>
<wgt id='133'> +4.7559682e+02 </wgt>
<wgt id='134'> +4.5295739e+02 </wgt>
<wgt id='135'> +4.9377162e+02 </wgt>
<wgt id='136'> +4.6004277e+02 </wgt>
<wgt id='137'> +4.5284525e+02 </wgt>
<wgt id='138'> +4.3536125e+02 </wgt>
<wgt id='139'> +4.8924061e+02 </wgt>
<wgt id='140'> +5.1306699e+02 </wgt>
<wgt id='141'> +4.7999794e+02 </wgt>
<wgt id='142'> +4.8822933e+02 </wgt>
<wgt id='143'> +4.7610605e+02 </wgt>
<wgt id='144'> +4.8324380e+02 </wgt>
<wgt id='145'> +4.8260865e+02 </wgt>
</rwgt>
</event>
<event>
 8      1 +4.8159400e+02 1.86219600e+02 7.54677100e-03 1.16191600e-01
        1 -1    0    0  502    0 +0.0000000000e+00 +0.0000000000e+00 +3.2562923903e+01 3.2562923903e+01 0.0000000000e+00 0.0000e+00 1.0000e+00
       -1 -1    0    0    0  501 -0.0000000000e+00 -0.0000000000e+00 -1.1259028529e+03 1.1259028529e+03 0.0000000000e+00 0.0000e+00 -1.0000e+00
        6  2    1    2  502    0 -6.1914259869e+01 -3.1121334317e+01 -4.1058457727e+02 4.5064539664e+02 1.7233590861e+02 0.0000e+00 0.0000e+00
       -6  2    1    2    0  501 +6.1914259869e+01 +3.1121334317e+01 -6.8275535169e+02 7.0782038013e+02 1.7335774351e+02 0.0000e+00 0.0000e+00
        5  1    3    3  502    0 -6.3363794301e+01 -5.2336472154e+01 -1.0214557591e+02 1.3118645290e+02 4.7000000000e+00 0.0000e+00 -1.0000e+00
       24  1    3    3    0    0 +1.4495344325e+00 +2.1215137837e+01 -3.0843900136e+02 3.1945894374e+02 8.0419002446e+01 0.0000e+00 -1.0000e+00
       -5  1    4    4    0  501 +4.7248678677e+01 +5.3638733219e+01 -5.1393374423e+02 5.1890224011e+02 4.7000000000e+00 0.0000e+00 1.0000e+00
      -24  1    4    4    0    0 +1.4665581192e+01 -2.2517398902e+01 -1.6882160747e+02 1.8891814001e+02 8.0419002446e+01 0.0000e+00 1.0000e+00
<mgrwt>
<rscale>  2 0.18621963E+03</rscale>
<asrwt>0</asrwt>
<pdfrwt beam="1">  1        1 0.50096799E-02 0.18621963E+03</pdfrwt>
<pdfrwt beam="2">  1       -1 0.17321585E+00 0.18621963E+03</pdfrwt>
<totfact> 0.42357087E+02</totfact>
</mgrwt>
<rwgt>
<wgt id='1'> +5.8794200e+02 </wgt>
<wgt id='2'> +5.7096903e+02 </wgt>
<wgt id='3'> +5.0096120e+02 </wgt>
<wgt id='4'> +6.1445577e+02 </wgt>
<wgt id='5'> +4.7807918e+02 </wgt>
<wgt id='6'> +5.9191272e+02 </wgt>
<wgt id='7'> +5.7419308e+02 </wgt>
<wgt id='8'> +5.0146139e+02 </wgt>
<wgt id='9'> +6.1966811e+02 </wgt>
<wgt id='10'> +4.7777090e+02 </wgt>
<wgt id='11'> +5.9168299e+02 </wgt>
<wgt id='12'> +5.7345903e+02 </wgt>
<wgt id='13'> +4.9900078e+02 </wgt>
<wgt id='14'> +6.2028682e+02 </wgt>
<wgt id='15'> +4.7484456e+02 </wgt>
<wgt id='16'> +4.7836333e+02 </wgt>
<wgt id='17'> +4.6686096e+02 </wgt>
<wgt id='18'> +4.1920896e+02 </wgt>
<wgt id='19'> +4.9674736e+02 </wgt>
<wgt id='20'> +4.0242671e+02 </wgt>
<wgt id='21'> +4.6949715e+02 </wgt>
<wgt id='22'> +4.1962752e+02 </wgt>
<wgt id='23'> +5.0096120e+02 </wgt>
<wgt id='24'> +4.0216722e+02 </wgt>
<wgt id='25'> +4.8140709e+02 </wgt>
<wgt id='26'> +4.6889695e+02 </wgt>
<wgt id='27'> +4.1756846e+02 </wgt>
<wgt id='28'> +5.0146139e+02 </wgt>
<wgt id='29'> +3.9970394e+02 </wgt>
<wgt id='30'> +4.0234222e+02 </wgt>
<wgt id='31'> +3.9365917e+02 </wgt>
<wgt id='32'> +3.5659537e+02 </wgt>
<wgt id='33'> +4.1568278e+02 </wgt>
<wgt id='34'> +3.4342151e+02 </wgt>
<wgt id='35'> +4.0505947e+02 </wgt>
<wgt id='36'> +3.9588201e+02 </wgt>
<wgt id='37'> +3.5695141e+02 </wgt>
<wgt id='38'> +4.1920896e+02 </wgt>
<wgt id='39'> +3.4320006e+02 </wgt>
<wgt id='40'> +4.0490227e+02 </wgt>
<wgt id='41'> +3.9537592e+02 </wgt>
<wgt id='42'> +3.5519990e+02 </wgt>
<wgt id='43'> +4.1962752e+02 </wgt>
<wgt id='44'> +3.4109796e+02 </wgt>
<wgt id='45'> +4.8159400e+02 </wgt>
<wgt id='46'> +4.7158844e+02 </wgt>
<wgt id='47'> +5.2280805e+02 </wgt>
<wgt id='48'> +4.3833459e+02 </wgt>
<wgt id='49'> +4.6230999e+02 </wgt>
<wgt id='50'> +5.0104845e+02 </wgt>
<wgt id='51'> +4.2394049e+02 </wgt>
<wgt id='52'> +5.7609729e+02 </wgt>
<wgt id='53'> +6.2248770e+02 </wgt>
<wgt id='54'> +5.2473255e+02 </wgt>
<wgt id='55'> +4.4832203e+02 </wgt>
<wgt id='56'> +3.7913667e+02 </wgt>
<wgt id='57'> +3.5535579e+02 </wgt>
<wgt id='58'> +6.7659162e+02 </wgt>
<wgt id='59'> +4.6932566e+02 </wgt>
<wgt id='60'> +4.6460203e+02 </wgt>
<wgt id='61'> +3.9002111e+02 </wgt>
<wgt id='62'> +4.6700120e+02 </wgt>
<wgt id='63'> +5.0403331e+02 </wgt>
<wgt id='64'> +4.9322662e+02 </wgt>
<wgt id='65'> +4.3953814e+02 </wgt>
<wgt id='66'> +3.5329838e+02 </wgt>
<wgt id='67'> +4.2837083e+02 </wgt>
<wgt id='68'> +4.9115981e+02 </wgt>
<wgt id='69'> +4.4879310e+02 </wgt>
<wgt id='70'> +6.4619982e+02 </wgt>
<wgt id='71'> +3.6846063e+02 </wgt>
<wgt id='72'> +3.9469347e+02 </wgt>
<wgt id='73'> +5.5330474e+02 </wgt>
<wgt id='74'> +5.5248440e+02 </wgt>
<wgt id='75'> +4.4125013e+02 </wgt>
<wgt id='76'> +5.0402325e+02 </wgt>
<wgt id='77'> +3.9845990e+02 </wgt>
<wgt id='78'> +4.6304387e+02 </wgt>
<wgt id='79'> +5.3811848e+02 </wgt>
<wgt id='80'> +3.8525361e+02 </wgt>
<wgt id='81'> +5.9815175e+02 </wgt>
<wgt id='82'> +5.3553527e+02 </wgt>
<wgt id='83'> +4.7968674e+02 </wgt>
<wgt id='84'> +4.7221273e+02 </wgt>
<wgt id='85'> +4.6242700e+02 </wgt>
<wgt id='86'> +5.1888745e+02 </wgt>
<wgt id='87'> +5.6382917e+02 </wgt>
<wgt id='88'> +4.5810722e+02 </wgt>
<wgt id='89'> +5.7508032e+02 </wgt>
<wgt id='90'> +4.8936643e+02 </wgt>
<wgt id='91'> +4.3059401e+02 </wgt>
<wgt id='92'> +3.9609627e+02 </wgt>
<wgt id='93'> +4.8972553e+02 </wgt>
<wgt id='94'> +4.5366389e+02 </wgt>
<wgt id='95'> +4.0576554e+02 </wgt>
<wgt id='96'> +4.8995618e+02 </wgt>
<wgt id='97'> +4.1120258e+02 </wgt>
<wgt id='98'> +4.4185955e+02 </wgt>
<wgt id='99'> +5.8908477e+02 </wgt>
<wgt id='100'> +2.9972251e+02 </wgt>
<wgt id='101'> +5.6706076e+02 </wgt>
<wgt id='102'> +5.2611287e+02 </wgt>
<wgt id='103'> +6.3182659e+02 </wgt>
<wgt id='104'> +4.2681129e+02 </wgt>
<wgt id='105'> +5.5382610e+02 </wgt>
<wgt id='106'> +4.5402731e+02 </wgt>
<wgt id='107'> +5.5839864e+02 </wgt>
<wgt id='108'> +3.2488768e+02 </wgt>
<wgt id='109'> +4.2013217e+02 </wgt>
<wgt id='110'> +4.9355492e+02 </wgt>
<wgt id='111'> +4.4338836e+02 </wgt>
<wgt id='112'> +3.8686224e+02 </wgt>
<wgt id='113'> +5.1259222e+02 </wgt>
<wgt id='114'> +4.4802866e+02 </wgt>
<wgt id='115'> +3.6091335e+02 </wgt>
<wgt id='116'> +4.6274502e+02 </wgt>
<wgt id='117'> +4.2556619e+02 </wgt>
<wgt id='118'> +5.3642812e+02 </wgt>
<wgt id='119'> +5.8041036e+02 </wgt>
<wgt id='120'> +5.1087843e+02 </wgt>
<wgt id='121'> +4.7582247e+02 </wgt>
<wgt id='122'> +4.9039696e+02 </wgt>
<wgt id='123'> +4.7291508e+02 </wgt>
<wgt id='124'> +4.7998775e+02 </wgt>
<wgt id='125'> +5.0117576e+02 </wgt>
<wgt id='126'> +4.7893374e+02 </wgt>
<wgt id='127'> +5.2841192e+02 </wgt>
<wgt id='128'> +4.0482413e+02 </wgt>
<wgt id='129'> +6.6847660e+02 </wgt>
<wgt id='130'> +3.9388874e+02 </wgt>
<wgt id='131'> +5.7848280e+02 </wgt>
<wgt id='132'> +4.4388920e+02 </wgt>
<wgt id='133'> +6.4272125e+02 </wgt>
<wgt id='134'> +4.4004001e+02 </wgt>
<wgt id='135'> +4.1277547e+02 </wgt>
<wgt id='136'> +6.1389114e+02 </wgt>
<wgt id='137'> +5.0106634e+02 </wgt>
<wgt id='138'> +4.1103337e+02 </wgt>
<wgt id='139'> +6.1449114e+02 </wgt>
<wgt id='140'> +5.0425207e+02 </wgt>
<wgt id='141'> +5.7128641e+02 </wgt>
<wgt id='142'> +3.4354434e+02 </wgt>
<wgt id='143'> +5.0262392e+02 </wgt>
<wgt id='144'> +4.1422285e+02 </wgt>
<wgt id='145'> +5.2356188e+02 </wgt>
</rwgt>
</event>
<event>
 8      1 +4.8159400e+02 2.40127700e+02 7.54677100e-03 1.11983300e-01
       21 -1    0    0  503  502 +0.0000000000e+00 +0.0000000000e+00 +3.2400299242e+02 3.2400299242e+02 0.0000000000e+00 0.0000e+00 -1.0000e+00
       21 -1    0    0  501  503 -0.0000000000e+00 -0.0000000000e+00 -1.8567681016e+02 1.8567681016e+02 0.0000000000e+00 0.0000e+00 -1.0000e+00
        6  2    1    2  501    0 +3.3546440238e+01 +1.6089200933e+02 +1.2283322453e+02 2.6905283768e+02 1.7403972563e+02 0.0000e+00 0.0000e+00
       -6  2    1    2    0  502 -3.3546440238e+01 -1.6089200933e+02 +1.5492957731e+01 2.4062696491e+02 1.7507056344e+02 0.0000e+00 0.0000e+00
        5  1    3    3  501    0 +7.7654220421e+01 +1.0860272203e+02 +7.4144394670e+01 1.5278812271e+02 4.7000000000e+00 0.0000e+00 -1.0000e+00
       24  1    3    3    0    0 -4.4107780183e+01 +5.2289287297e+01 +4.8688829857e+01 1.1626471497e+02 8.0419002446e+01 0.0000e+00 0.0000e+00
       -5  1    4    4    0  502 +3.1864632903e+01 +1.2146370214e+01 -1.3231906161e+01 3.6879024934e+01 4.7000000000e+00 0.0000e+00 1.0000e+00
      -24  1    4    4    0    0 -6.5411073141e+01 -1.7303837954e+02 +2.8724863893e+01 2.0374793997e+02 8.0419002446e+01 0.0000e+00 0.0000e+00
<mgrwt>
<rscale>  2 0.23993983E+03</rscale>
<asrwt>0</asrwt>
<pdfrwt beam="1">  1       21 0.49846614E-01 0.24012768E+03</pdfrwt>
<pdfrwt beam="2">  1       21 0.28565663E-01 0.24012768E+03</pdfrwt>
<totfact> 0.43958877E+04</totfact>
</mgrwt>
<rwgt>
<wgt id='1'> +6.2021172e+02 </wgt>
<wgt id='2'> +4.8740437e+02 </wgt>
<wgt id='3'> +4.8326684e+02 </wgt>
<wgt id='4'> +6.2248897e+02 </wgt>
<wgt id='5'> +4.7790407e+02 </wgt>
<wgt id='6'> +5.8399764e+02 </wgt>
<wgt id='7'> +4.5423864e+02 </wgt>
<wgt id='8'> +4.5038361e+02 </wgt>
<wgt id='9'> +5.8631722e+02 </wgt>
<wgt id='10'> +4.4538773e+02 </wgt>
<wgt id='11'> +5.4426095e+02 </wgt>
<wgt id='12'> +4.2353118e+02 </wgt>
<wgt id='13'> +4.1994917e+02 </wgt>
<wgt id='14'> +5.4642207e+02 </wgt>
<wgt id='15'> +4.1530739e+02 </wgt>
<wgt id='16'> +5.1145796e+02 </wgt>
<wgt id='17'> +4.1194891e+02 </wgt>
<wgt id='18'> +4.0865303e+02 </wgt>
<wgt id='19'> +5.1308109e+02 </wgt>
<wgt id='20'> +4.0437606e+02 </wgt>
<wgt id='21'> +3.8391759e+02 </wgt>
<wgt id='22'> +3.8084679e+02 </wgt>
<wgt id='23'> +4.8326684e+02 </wgt>
<wgt id='24'> +3.7686252e+02 </wgt>
<wgt id='25'> +4.4882512e+02 </wgt>
<wgt id='26'> +3.5796397e+02 </wgt>
<wgt id='27'> +3.5511127e+02 </wgt>
<wgt id='28'> +4.5038361e+02 </wgt>
<wgt id='29'> +3.5141020e+02 </wgt>
<wgt id='30'> +4.3257574e+02 </wgt>
<wgt id='31'> +3.5274791e+02 </wgt>
<wgt id='32'> +3.5007164e+02 </wgt>
<wgt id='33'> +4.3386412e+02 </wgt>
<wgt id='34'> +3.4659695e+02 </wgt>
<wgt id='35'> +4.0731770e+02 </wgt>
<wgt id='36'> +3.2874496e+02 </wgt>
<wgt id='37'> +3.2625149e+02 </wgt>
<wgt id='38'> +4.0865303e+02 </wgt>
<wgt id='39'> +3.2301467e+02 </wgt>
<wgt id='40'> +3.7960276e+02 </wgt>
<wgt id='41'> +3.0652113e+02 </wgt>
<wgt id='42'> +3.0420522e+02 </wgt>
<wgt id='43'> +3.8084679e+02 </wgt>
<wgt id='44'> +3.0119909e+02 </wgt>
<wgt id='45'> +4.8159400e+02 </wgt>
<wgt id='46'> +4.8434430e+02 </wgt>
<wgt id='47'> +5.0026157e+02 </wgt>
<wgt id='48'> +4.8472717e+02 </wgt>
<wgt id='49'> +4.8017200e+02 </wgt>
<wgt id='50'> +5.6884847e+02 </wgt>
<wgt id='51'> +4.7232279e+02 </wgt>
<wgt id='52'> +4.7923678e+02 </wgt>
<wgt id='53'> +4.8528731e+02 </wgt>
<wgt id='54'> +4.8450977e+02 </wgt>
<wgt id='55'> +4.3073149e+02 </wgt>
<wgt id='56'> +4.4554974e+02 </wgt>
<wgt id='57'> +4.6889742e+02 </wgt>
<wgt id='58'> +4.8192723e+02 </wgt>
<wgt id='59'> +4.7740482e+02 </wgt>
<wgt id='60'> +4.6449835e+02 </wgt>
<wgt id='61'> +4.6358756e+02 </wgt>
<wgt id='62'> +4.7575725e+02 </wgt>
<wgt id='63'> +4.8210831e+02 </wgt>
<wgt id='64'> +4.7476033e+02 </wgt>
<wgt id='65'> +5.6681697e+02 </wgt>
<wgt id='66'> +4.7103246e+02 </wgt>
<wgt id='67'> +4.8589432e+02 </wgt>
<wgt id='68'> +5.1897013e+02 </wgt>
<wgt id='69'> +4.7359766e+02 </wgt>
<wgt id='70'> +4.7327838e+02 </wgt>
<wgt id='71'> +4.9034771e+02 </wgt>
<wgt id='72'> +4.6314270e+02 </wgt>
<wgt id='73'> +4.7369718e+02 </wgt>
<wgt id='74'> +4.9885861e+02 </wgt>
<wgt id='75'> +4.9311455e+02 </wgt>
<wgt id='76'> +4.6707927e+02 </wgt>
<wgt id='77'> +4.6562786e+02 </wgt>
<wgt id='78'> +4.7867041e+02 </wgt>
<wgt id='79'> +4.6392888e+02 </wgt>
<wgt id='80'> +4.7630824e+02 </wgt>
<wgt id='81'> +4.7182304e+02 </wgt>
<wgt id='82'> +4.9268297e+02 </wgt>
<wgt id='83'> +4.9294437e+02 </wgt>
<wgt id='84'> +5.3004067e+02 </wgt>
<wgt id='85'> +5.0626702e+02 </wgt>
<wgt id='86'> +4.8033163e+02 </wgt>
<wgt id='87'> +4.8249463e+02 </wgt>
<wgt id='88'> +4.9078867e+02 </wgt>
<wgt id='89'> +4.9362364e+02 </wgt>
<wgt id='90'> +4.8767412e+02 </wgt>
<wgt id='91'> +5.1109661e+02 </wgt>
<wgt id='92'> +4.3851159e+02 </wgt>
<wgt id='93'> +4.7491641e+02 </wgt>
<wgt id='94'> +4.7689248e+02 </wgt>
<wgt id='95'> +4.6106733e+02 </wgt>
<wgt id='96'> +5.2359079e+02 </wgt>
<wgt id='97'> +4.8719958e+02 </wgt>
<wgt id='98'> +4.6049064e+02 </wgt>
<wgt id='99'> +4.6618484e+02 </wgt>
<wgt id='100'> +4.7277449e+02 </wgt>
<wgt id='101'> +5.1113375e+02 </wgt>
<wgt id='102'> +4.7270871e+02 </wgt>
<wgt id='103'> +5.2443705e+02 </wgt>
<wgt id='104'> +4.8253435e+02 </wgt>
<wgt id='105'> +4.9845588e+02 </wgt>
<wgt id='106'> +4.3907608e+02 </wgt>
<wgt id='107'> +4.7111052e+02 </wgt>
<wgt id='108'> +4.2796632e+02 </wgt>
<wgt id='109'> +4.5008941e+02 </wgt>
<wgt id='110'> +4.8124496e+02 </wgt>
<wgt id='111'> +4.6759406e+02 </wgt>
<wgt id='112'> +4.5750961e+02 </wgt>
<wgt id='113'> +4.4062798e+02 </wgt>
<wgt id='114'> +4.7612067e+02 </wgt>
<wgt id='115'> +4.7809712e+02 </wgt>
<wgt id='116'> +4.8535369e+02 </wgt>
<wgt id='117'> +4.8637181e+02 </wgt>
<wgt id='118'> +4.9714130e+02 </wgt>
<wgt id='119'> +4.6191432e+02 </wgt>
<wgt id='120'> +4.7721204e+02 </wgt>
<wgt id='121'> +4.6663474e+02 </wgt>
<wgt id='122'> +4.7486667e+02 </wgt>
<wgt id='123'> +4.8879471e+02 </wgt>
<wgt id='124'> +5.1848292e+02 </wgt>
<wgt id='125'> +5.1943605e+02 </wgt>
<wgt id='126'> +5.0157611e+02 </wgt>
<wgt id='127'> +4.9688711e+02 </wgt>
<wgt id='128'> +4.4537678e+02 </wgt>
<wgt id='129'> +5.4574340e+02 </wgt>
<wgt id='130'> +4.8626496e+02 </wgt>
<wgt id='131'> +5.1493299e+02 </wgt>
<wgt id='132'> +4.7925267e+02 </wgt>
<wgt id='133'> +4.8135034e+02 </wgt>
<wgt id='134'> +4.5404207e+02 </wgt>
<wgt id='135'> +4.9355561e+02 </wgt>
<wgt id='136'> +4.6431179e+02 </wgt>
<wgt id='137'> +4.5530314e+02 </wgt>
<wgt id='138'> +4.4221632e+02 </wgt>
<wgt id='139'> +4.9209262e+02 </wgt>
<wgt id='140'> +5.0979135e+02 </wgt>
<wgt id='141'> +4.8216707e+02 </wgt>
<wgt id='142'> +4.8065434e+02 </wgt>
<wgt id='143'> +4.7889096e+02 </wgt>
<wgt id='144'> +4.7886718e+02 </wgt>
<wgt id='145'> +4.8265899e+02 </wgt>
</rwgt>
</event>
<event>
 8      1 +4.8159400e+02 2.06318100e+02 7.54677100e-03 1.14456900e-01
       21 -1    0    0  503  502 +0.0000000000e+00 +0.0000000000e+00 +3.6795703465e+02 3.6795703465e+02 0.0000000000e+00 0.0000e+00 -1.0000e+00
       21 -1    0    0  501  503 -0.0000000000e+00 -0.0000000000e+00 -1.3523602068e+02 1.3523602068e+02 0.0000000000e+00 0.0000e+00 1.0000e+00
        6  2    1    2  501    0 +1.0693997234e+02 +3.2883136198e+01 +2.0398518105e+01 2.0732401261e+02 1.7334845928e+02 0.0000e+00 0.0000e+00
       -6  2    1    2    0  502 -1.0693997234e+02 -3.2883136198e+01 +2.1232249587e+02 2.9586904271e+02 1.7303233760e+02 0.0000e+00 0.0000e+00
        5  1    3    3  501    0 +8.9078206729e+01 -7.0042548983e+00 +5.9858531773e+01 1.0765277668e+02 4.7000000000e+00 0.0000e+00 -1.0000e+00
       24  1    3    3    0    0 +1.7861765609e+01 +3.9887391096e+01 -3.9460013668e+01 9.9671235932e+01 8.0419002446e+01 0.0000e+00 -1.0000e+00
       -5  1    4    4    0  502 -3.3704372027e+00 +3.1835183987e+01 -6.1900718991e+00 3.2943068717e+01 4.7000000000e+00 0.0000e+00 1.0000e+00
      -24  1    4    4    0    0 -1.0356953514e+02 -6.4718320184e+01 +2.1851256776e+02 2.6292597399e+02 8.0419002446e+01 0.0000e+00 0.0000e+00
<mgrwt>
<rscale>  2 0.20625166E+03</rscale>
<asrwt>0</asrwt>
<pdfrwt beam="1">  1       21 0.56608774E-01 0.20631807E+03</pdfrwt>
<pdfrwt beam="2">  1       21 0.20805542E-01 0.20631807E+03</pdfrwt>
<totfact> 0.62510288E+04</totfact>
</mgrwt>
<rwgt>
<wgt id='1'> +6.1887470e+02 </wgt>
<wgt id='2'> +5.2461762e+02 </wgt>
<wgt id='3'> +5.0550832e+02 </wgt>
<wgt id='4'> +6.5162010e+02 </wgt>
<wgt id='5'> +4.6859553e+02 </wgt>
<wgt id='6'> +5.8884960e+02 </wgt>
<wgt id='7'> +4.9256421e+02 </wgt>
<wgt id='8'> +4.7385342e+02 </wgt>
<wgt id='9'> +6.2231644e+02 </wgt>
<wgt id='10'> +4.3886627e+02 </wgt>
<wgt id='11'> +5.5146679e+02 </wgt>
<wgt id='12'> +4.6125306e+02 </wgt>
<wgt id='13'> +4.4373157e+02 </wgt>
<wgt id='14'> +5.8334703e+02 </wgt>
<wgt id='15'> +4.1099333e+02 </wgt>
<wgt id='16'> +5.0615020e+02 </wgt>
<wgt id='17'> +4.3912259e+02 </wgt>
<wgt id='18'> +4.2471449e+02 </wgt>
<wgt id='19'> +5.2931171e+02 </wgt>
<wgt id='20'> +3.9575044e+02 </wgt>
<wgt id='21'> +4.1229281e+02 </wgt>
<wgt id='22'> +3.9811890e+02 </wgt>
<wgt id='23'> +5.0550832e+02 </wgt>
<wgt id='24'> +3.7064272e+02 </wgt>
<wgt id='25'> +4.5102026e+02 </wgt>
<wgt id='26'> +3.8608432e+02 </wgt>
<wgt id='27'> +3.7281133e+02 </wgt>
<wgt id='28'> +4.7385342e+02 </wgt>
<wgt id='29'> +3.4710274e+02 </wgt>
<wgt id='30'> +4.2682525e+02 </wgt>
<wgt id='31'> +3.7358077e+02 </wgt>
<wgt id='32'> +3.6202639e+02 </wgt>
<wgt id='33'> +4.4471346e+02 </wgt>
<wgt id='34'> +3.3864585e+02 </wgt>
<wgt id='35'> +4.0611755e+02 </wgt>
<wgt id='36'> +3.5075550e+02 </wgt>
<wgt id='37'> +3.3935632e+02 </wgt>
<wgt id='38'> +4.2471449e+02 </wgt>
<wgt id='39'> +3.1716104e+02 </wgt>
<wgt id='40'> +3.8033539e+02 </wgt>
<wgt id='41'> +3.2845880e+02 </wgt>
<wgt id='42'> +3.1778417e+02 </wgt>
<wgt id='43'> +3.9811890e+02 </wgt>
<wgt id='44'> +2.9701775e+02 </wgt>
<wgt id='45'> +4.8159400e+02 </wgt>
<wgt id='46'> +4.8330758e+02 </wgt>
<wgt id='47'> +4.9848631e+02 </wgt>
<wgt id='48'> +4.8356559e+02 </wgt>
<wgt id='49'> +4.7991310e+02 </wgt>
<wgt id='50'> +5.6355552e+02 </wgt>
<wgt id='51'> +4.7220262e+02 </wgt>
<wgt id='52'> +4.7945948e+02 </wgt>
<wgt id='53'> +4.8527053e+02 </wgt>
<wgt id='54'> +4.8466174e+02 </wgt>
<wgt id='55'> +4.3373298e+02 </wgt>
<wgt id='56'> +4.4677058e+02 </wgt>
<wgt id='57'> +4.7055683e+02 </wgt>
<wgt id='58'> +4.8307401e+02 </wgt>
<wgt id='59'> +4.7811571e+02 </wgt>
<wgt id='60'> +4.6504397e+02 </wgt>
<wgt id='61'> +4.6301943e+02 </wgt>
<wgt id='62'> +4.7521834e+02 </wgt>
<wgt id='63'> +4.8205107e+02 </wgt>
<wgt id='64'> +4.7582893e+02 </wgt>
<wgt id='65'> +5.6318684e+02 </wgt>
<wgt id='66'> +4.7069231e+02 </wgt>
<wgt id='67'> +4.8575616e+02 </wgt>
<wgt id='68'> +5.1778706e+02 </wgt>
<wgt id='69'> +4.7144254e+02 </wgt>
<wgt id='70'> +4.7372053e+02 </wgt>
<wgt id='71'> +4.9036716e+02 </wgt>
<wgt id='72'> +4.6717035e+02 </wgt>
<wgt id='73'> +4.7427772e+02 </wgt>
<wgt id='74'> +4.9767960e+02 </wgt>
<wgt id='75'> +4.9217369e+02 </wgt>
<wgt id='76'> +4.6853512e+02 </wgt>
<wgt id='77'> +4.6552991e+02 </wgt>
<wgt id='78'> +4.7891717e+02 </wgt>
<wgt id='79'> +4.6401712e+02 </wgt>
<wgt id='80'> +4.7643720e+02 </wgt>
<wgt id='81'> +4.7258553e+02 </wgt>
<wgt id='82'> +4.9191839e+02 </wgt>
<wgt id='83'> +4.9112788e+02 </wgt>
<wgt id='84'> +5.2734968e+02 </wgt>
<wgt id='85'> +5.0465943e+02 </wgt>
<wgt id='86'> +4.7928833e+02 </wgt>
<wgt id='87'> +4.8219478e+02 </wgt>
<wgt id='88'> +4.8917827e+02 </wgt>
<wgt id='89'> +4.9277740e+02 </wgt>
<wgt id='90'> +4.8790330e+02 </wgt>
<wgt id='91'> +5.0997576e+02 </wgt>
<wgt id='92'> +4.4260500e+02 </wgt>
<wgt id='93'> +4.7432770e+02 </wgt>
<wgt id='94'> +4.7772110e+02 </wgt>
<wgt id='95'> +4.6345548e+02 </wgt>
<wgt id='96'> +5.1994828e+02 </wgt>
<wgt id='97'> +4.8735630e+02 </wgt>
<wgt id='98'> +4.6103720e+02 </wgt>
<wgt id='99'> +4.6649895e+02 </wgt>
<wgt id='100'> +4.7416354e+02 </wgt>
<wgt id='101'> +5.0935996e+02 </wgt>
<wgt id='102'> +4.7160171e+02 </wgt>
<wgt id='103'> +5.2258014e+02 </wgt>
<wgt id='104'> +4.8139686e+02 </wgt>
<wgt id='105'> +4.9978588e+02 </wgt>
<wgt id='106'> +4.4228267e+02 </wgt>
<wgt id='107'> +4.7304400e+02 </wgt>
<wgt id='108'> +4.3049885e+02 </wgt>
<wgt id='109'> +4.5227677e+02 </wgt>
<wgt id='110'> +4.8189740e+02 </wgt>
<wgt id='111'> +4.6880911e+02 </wgt>
<wgt id='112'> +4.5857133e+02 </wgt>
<wgt id='113'> +4.4257916e+02 </wgt>
<wgt id='114'> +4.7826115e+02 </wgt>
<wgt id='115'> +4.7812118e+02 </wgt>
<wgt id='116'> +4.8356073e+02 </wgt>
<wgt id='117'> +4.8609533e+02 </wgt>
<wgt id='118'> +4.9541946e+02 </wgt>
<wgt id='119'> +4.6356971e+02 </wgt>
<wgt id='120'> +4.7706354e+02 </wgt>
<wgt id='121'> +4.6845279e+02 </wgt>
<wgt id='122'> +4.7549485e+02 </wgt>
<wgt id='123'> +4.8742087e+02 </wgt>
<wgt id='124'> +5.1661680e+02 </wgt>
<wgt id='125'> +5.1796061e+02 </wgt>
<wgt id='126'> +4.9968703e+02 </wgt>
<wgt id='127'> +4.9578113e+02 </wgt>
<wgt id='128'> +4.4570422e+02 </wgt>
<wgt id='129'> +5.4434587e+02 </wgt>
<wgt id='130'> +4.8425281e+02 </wgt>
<wgt id='131'> +5.1394524e+02 </wgt>
<wgt id='132'> +4.8057994e+02 </wgt>
<wgt id='133'> +4.8057162e+02 </wgt>
<wgt id='134'> +4.5523640e+02 </wgt>
<wgt id='135'> +4.9324961e+02 </wgt>
<wgt id='136'> +4.6628213e+02 </wgt>
<wgt id='137'> +4.5475909e+02 </wgt>
<wgt id='138'> +4.4022388e+02 </wgt>
<wgt id='139'> +4.9161227e+02 </wgt>
<wgt id='140'> +5.0944236e+02 </wgt>
<wgt id='141'> +4.8176657e+02 </wgt>
<wgt id='142'> +4.8074089e+02 </wgt>
<wgt id='143'> +4.7953027e+02 </wgt>
<wgt id='144'> +4.8007524e+02 </wgt>
<wgt id='145'> +4.8249693e+02 </wgt>
</rwgt>
</event>
<event>
 8      1 +4.8159400e+02 1.82724400e+02 7.54677100e-03 1.16519200e-01
        2 -1    0    0  502    0 +0.0000000000e+00 +0.0000000000e+00 +3.5271370880e+02 3.5271370880e+02 0.0000000000e+00 0.0000e+00 -1.0000e+00
       -2 -1    0    0    0  501 -0.0000000000e+00 -0.0000000000e+00 -9.4660998797e+01 9.4660998797e+01 0.0000000000e+00 0.0000e+00 1.0000e+00
        6  2    1    2  502    0 +1.3282176378e+01 -5.6727795870e+01 +1.2895892127e+02 2.2372303434e+02 1.7328339126e+02 0.0000e+00 0.0000e+00
       -6  2    1    2    0  501 -1.3282176378e+01 +5.6727795870e+01 +1.2909378873e+02 2.2365167325e+02 1.7309074391e+02 0.0000e+00 0.0000e+00
        5  1    3    3  502    0 +3.3801181678e-01 -7.3623384833e+01 +1.1890175370e+02 1.3992938962e+02 4.7000000000e+00 0.0000e+00 -1.0000e+00
       24  1    3    3    0    0 +1.2944164561e+01 +1.6895588963e+01 +1.0057167571e+01 8.3793644726e+01 8.0419002446e+01 0.0000e+00 0.0000e+00
       -5  1    4    4    0  501 -1.0600141808e+01 +6.0742569707e+01 -1.0261019477e+01 6.2684936800e+01 4.7000000000e+00 0.0000e+00 1.0000e+00
      -24  1    4    4    0    0 -2.6820345697e+00 -4.0147738377e+00 +1.3935480821e+02 1.6096673645e+02 8.0419002446e+01 0.0000e+00 0.0000e+00
<mgrwt>
<rscale>  2 0.18272442E+03</rscale>
<asrwt>0</asrwt>
<pdfrwt beam="1">  1        2 0.54263647E-01 0.18272442E+03</pdfrwt>
<pdfrwt beam="2">  1       -2 0.14563231E-01 0.18272442E+03</pdfrwt>
<totfact> 0.32331590E+03</totfact>
</mgrwt>
<rwgt>
<wgt id='1'> +5.7374123e+02 </wgt>
<wgt id='2'> +5.4862774e+02 </wgt>
<wgt id='3'> +5.0522044e+02 </wgt>
<wgt id='4'> +6.0507255e+02 </wgt>
<wgt id='5'> +4.8159397e+02 </wgt>
<wgt id='6'> +5.9240420e+02 </wgt>
<wgt id='7'> +5.6519211e+02 </wgt>
<wgt id='8'> +5.1843668e+02 </wgt>
<wgt id='9'> +6.2653262e+02 </wgt>
<wgt id='10'> +4.9308945e+02 </wgt>
<wgt id='11'> +6.0654469e+02 </wgt>
<wgt id='12'> +5.7764193e+02 </wgt>
<wgt id='13'> +5.2821850e+02 </wgt>
<wgt id='14'> +6.4292230e+02 </wgt>
<wgt id='15'> +5.0152145e+02 </wgt>
<wgt id='16'> +4.6642197e+02 </wgt>
<wgt id='17'> +4.4996959e+02 </wgt>
<wgt id='18'> +4.2137464e+02 </wgt>
<wgt id='19'> +4.8791557e+02 </wgt>
<wgt id='20'> +4.0482744e+02 </wgt>
<wgt id='21'> +4.6355523e+02 </wgt>
<wgt id='22'> +4.3239752e+02 </wgt>
<wgt id='23'> +5.0522044e+02 </wgt>
<wgt id='24'> +4.1449053e+02 </wgt>
<wgt id='25'> +4.9308949e+02 </wgt>
<wgt id='26'> +4.7376624e+02 </wgt>
<wgt id='27'> +4.4055596e+02 </wgt>
<wgt id='28'> +5.1843668e+02 </wgt>
<wgt id='29'> +4.2157847e+02 </wgt>
<wgt id='30'> +3.9207387e+02 </wgt>
<wgt id='31'> +3.7981908e+02 </wgt>
<wgt id='32'> +3.5794370e+02 </wgt>
<wgt id='33'> +4.0694167e+02 </wgt>
<wgt id='34'> +3.4517657e+02 </wgt>
<wgt id='35'> +4.0482746e+02 </wgt>
<wgt id='36'> +3.9128672e+02 </wgt>
<wgt id='37'> +3.6730727e+02 </wgt>
<wgt id='38'> +4.2137464e+02 </wgt>
<wgt id='39'> +3.5341582e+02 </wgt>
<wgt id='40'> +4.1449056e+02 </wgt>
<wgt id='41'> +3.9990582e+02 </wgt>
<wgt id='42'> +3.7423760e+02 </wgt>
<wgt id='43'> +4.3239752e+02 </wgt>
<wgt id='44'> +3.5945935e+02 </wgt>
<wgt id='45'> +4.8159400e+02 </wgt>
<wgt id='46'> +4.8067772e+02 </wgt>
<wgt id='47'> +4.6565300e+02 </wgt>
<wgt id='48'> +4.7334584e+02 </wgt>
<wgt id='49'> +4.7881652e+02 </wgt>
<wgt id='50'> +4.4639412e+02 </wgt>
<wgt id='51'> +4.9289241e+02 </wgt>
<wgt id='52'> +4.6525516e+02 </wgt>
<wgt id='53'> +4.9258420e+02 </wgt>
<wgt id='54'> +4.7292995e+02 </wgt>
<wgt id='55'> +4.6692980e+02 </wgt>
<wgt id='56'> +5.1152675e+02 </wgt>
<wgt id='57'> +4.7549659e+02 </wgt>
<wgt id='58'> +4.9197573e+02 </wgt>
<wgt id='59'> +4.7063571e+02 </wgt>
<wgt id='60'> +4.8052580e+02 </wgt>
<wgt id='61'> +5.2726180e+02 </wgt>
<wgt id='62'> +5.0828675e+02 </wgt>
<wgt id='63'> +4.8763890e+02 </wgt>
<wgt id='64'> +4.7741339e+02 </wgt>
<wgt id='65'> +4.6333419e+02 </wgt>
<wgt id='66'> +5.0932425e+02 </wgt>
<wgt id='67'> +4.8940835e+02 </wgt>
<wgt id='68'> +4.0479763e+02 </wgt>
<wgt id='69'> +4.5266374e+02 </wgt>
<wgt id='70'> +4.6964069e+02 </wgt>
<wgt id='71'> +4.9670089e+02 </wgt>
<wgt id='72'> +4.9228309e+02 </wgt>
<wgt id='73'> +4.9051231e+02 </wgt>
<wgt id='74'> +4.4075431e+02 </wgt>
<wgt id='75'> +4.5226495e+02 </wgt>
<wgt id='76'> +5.0161984e+02 </wgt>
<wgt id='77'> +4.9942972e+02 </wgt>
<wgt id='78'> +5.0049829e+02 </wgt>
<wgt id='79'> +4.9058241e+02 </wgt>
<wgt id='80'> +5.1043281e+02 </wgt>
<wgt id='81'> +4.7708160e+02 </wgt>
<wgt id='82'> +4.8291918e+02 </wgt>
<wgt id='83'> +4.5627237e+02 </wgt>
<wgt id='84'> +4.8534191e+02 </wgt>
<wgt id='85'> +4.7562164e+02 </wgt>
<wgt id='86'> +4.7750842e+02 </wgt>
<wgt id='87'> +4.8787705e+02 </wgt>
<wgt id='88'> +4.8552158e+02 </wgt>
<wgt id='89'> +4.9086841e+02 </wgt>
<wgt id='90'> +5.1873689e+02 </wgt>
<wgt id='91'> +4.6054292e+02 </wgt>
<wgt id='92'> +5.0647180e+02 </wgt>
<wgt id='93'> +4.6942790e+02 </wgt>
<wgt id='94'> +4.8586131e+02 </wgt>
<wgt id='95'> +4.8084022e+02 </wgt>
<wgt id='96'> +4.7083540e+02 </wgt>
<wgt id='97'> +4.9568679e+02 </wgt>
<wgt id='98'> +4.8719264e+02 </wgt>
<wgt id='99'> +5.0517571e+02 </wgt>
<wgt id='100'> +5.2346395e+02 </wgt>
<wgt id='101'> +4.3020024e+02 </wgt>
<wgt id='102'> +4.5149820e+02 </wgt>
<wgt id='103'> +4.6382787e+02 </wgt>
<wgt id='104'> +4.7575113e+02 </wgt>
<wgt id='105'> +4.7339735e+02 </wgt>
<wgt id='106'> +5.0758232e+02 </wgt>
<wgt id='107'> +4.7702070e+02 </wgt>
<wgt id='108'> +5.1949296e+02 </wgt>
<wgt id='109'> +5.0354023e+02 </wgt>
<wgt id='110'> +5.0654231e+02 </wgt>
<wgt id='111'> +4.9962614e+02 </wgt>
<wgt id='112'> +4.9185975e+02 </wgt>
<wgt id='113'> +4.8607248e+02 </wgt>
<wgt id='114'> +4.8932651e+02 </wgt>
<wgt id='115'> +5.0037062e+02 </wgt>
<wgt id='116'> +4.7497348e+02 </wgt>
<wgt id='117'> +4.7900143e+02 </wgt>
<wgt id='118'> +4.5256177e+02 </wgt>
<wgt id='119'> +4.8468515e+02 </wgt>
<wgt id='120'> +4.7564363e+02 </wgt>
<wgt id='121'> +4.9007081e+02 </wgt>
<wgt id='122'> +4.9548798e+02 </wgt>
<wgt id='123'> +5.1374221e+02 </wgt>
<wgt id='124'> +4.5865692e+02 </wgt>
<wgt id='125'> +4.2863193e+02 </wgt>
<wgt id='126'> +4.7633666e+02 </wgt>
<wgt id='127'> +4.7772885e+02 </wgt>
<wgt id='128'> +4.9794156e+02 </wgt>
<wgt id='129'> +4.4795587e+02 </wgt>
<wgt id='130'> +4.7225598e+02 </wgt>
<wgt id='131'> +4.6736598e+02 </wgt>
<wgt id='132'> +4.5205535e+02 </wgt>
<wgt id='133'> +4.7721154e+02 </wgt>
<wgt id='134'> +4.6736694e+02 </wgt>
<wgt id='135'> +4.7428898e+02 </wgt>
<wgt id='136'> +4.6691577e+02 </wgt>
<wgt id='137'> +5.0291930e+02 </wgt>
<wgt id='138'> +4.8752864e+02 </wgt>
<wgt id='139'> +4.6372162e+02 </wgt>
<wgt id='140'> +4.6428476e+02 </wgt>
<wgt id='141'> +4.6142192e+02 </wgt>
<wgt id='142'> +5.2908323e+02 </wgt>
<wgt id='143'> +4.9604739e+02 </wgt>
<wgt id='144'> +5.1171689e+02 </wgt>
<wgt id='145'> +4.9494943e+02 </wgt>
</rwgt>
</event>
<event>
 8      1 +4.8159400e+02 2.98257300e+02 7.54677100e-03 1.08614500e-01
       21 -1    0    0  501  502 +0.0000000000e+00 +0.0000000000e+00 +2.6154386465e+02 2.6154386465e+02 0.0000000000e+00 0.0000e+00 1.0000e+00
       21 -1    0    0  502  503 -0.0000000000e+00 -0.0000000000e+00 -3.4744085217e+02 3.4744085217e+02 0.0000000000e+00 0.0000e+00 -1.0000e+00
       -6  2    1    2    0  503 +8.2572239818e+01 +2.2845842310e+02 -8.7941307058e+01 3.1072042078e+02 1.7263279101e+02 0.0000e+00 0.0000e+00
        6  2    1    2  501    0 -8.2572239818e+01 -2.2845842310e+02 +2.0443195360e+00 2.9826429603e+02 1.7304908314e+02 0.0000e+00 0.0000e+00
        5  1    4    4  501    0 -2.3394076706e+01 -3.7188503679e+01 -5.9299132097e+01 7.3950961442e+01 4.7000000000e+00 0.0000e+00 -1.0000e+00
       24  1    4    4    0    0 -5.9178163112e+01 -1.9126991942e+02 +6.1343451633e+01 2.2431333459e+02 8.0419002446e+01 0.0000e+00 0.0000e+00
       -5  1    3    3    0  503 +3.0326603473e+01 +1.5697078206e+02 -1.0288698438e+02 1.9017715650e+02 4.7000000000e+00 0.0000e+00 1.0000e+00
      -24  1    3    3    0    0 +5.2245636345e+01 +7.1487641033e+01 +1.4945677326e+01 1.2054326428e+02 8.0419002446e+01 0.0000e+00 1.0000e+00
<mgrwt>
<rscale>  2 0.29819694E+03</rscale>
<asrwt>0</asrwt>
<pdfrwt beam="1">  1       21 0.40237518E-01 0.29825729E+03</pdfrwt>
<pdfrwt beam="2">  1       21 0.53452439E-01 0.29825729E+03</pdfrwt>
<totfact> 0.18701501E+04</totfact>
</mgrwt>
<rwgt>
<wgt id='1'> +6.2586156e+02 </wgt>
<wgt id='2'> +5.0045873e+02 </wgt>
<wgt id='3'> +4.9969574e+02 </wgt>
<wgt id='4'> +6.5099058e+02 </wgt>
<wgt id='5'> +4.7969871e+02 </wgt>
<wgt id='6'> +5.7753358e+02 </wgt>
<wgt id='7'> +4.6053470e+02 </wgt>
<wgt id='8'> +4.5983705e+02 </wgt>
<wgt id='9'> +6.0232189e+02 </wgt>
<wgt id='10'> +4.4155415e+02 </wgt>
<wgt id='11'> +5.3159530e+02 </wgt>
<wgt id='12'> +4.2459936e+02 </wgt>
<wgt id='13'> +4.2396148e+02 </wgt>
<wgt id='14'> +5.5427713e+02 </wgt>
<wgt id='15'> +4.0724447e+02 </wgt>
<wgt id='16'> +5.2189376e+02 </wgt>
<wgt id='17'> +4.2422637e+02 </wgt>
<wgt id='18'> +4.2361412e+02 </wgt>
<wgt id='19'> +5.4007205e+02 </wgt>
<wgt id='20'> +4.0754192e+02 </wgt>
<wgt id='21'> +3.9038376e+02 </wgt>
<wgt id='22'> +3.8982415e+02 </wgt>
<wgt id='23'> +4.9969574e+02 </wgt>
<wgt id='24'> +3.7513510e+02 </wgt>
<wgt id='25'> +4.4328696e+02 </wgt>
<wgt id='26'> +3.5992227e+02 </wgt>
<wgt id='27'> +3.5941084e+02 </wgt>
<wgt id='28'> +4.5983705e+02 </wgt>
<wgt id='29'> +3.4598632e+02 </wgt>
<wgt id='30'> +4.4329827e+02 </wgt>
<wgt id='31'> +3.6417308e+02 </wgt>
<wgt id='32'> +3.6367263e+02 </wgt>
<wgt id='33'> +4.5784290e+02 </wgt>
<wgt id='34'> +3.5052152e+02 </wgt>
<wgt id='35'> +4.0906752e+02 </wgt>
<wgt id='36'> +3.3512122e+02 </wgt>
<wgt id='37'> +3.3466394e+02 </wgt>
<wgt id='38'> +4.2361412e+02 </wgt>
<wgt id='39'> +3.2264884e+02 </wgt>
<wgt id='40'> +3.7652940e+02 </wgt>
<wgt id='41'> +3.0897184e+02 </wgt>
<wgt id='42'> +3.0855413e+02 </wgt>
<wgt id='43'> +3.8982415e+02 </wgt>
<wgt id='44'> +2.9757835e+02 </wgt>
<wgt id='45'> +4.8159400e+02 </wgt>
<wgt id='46'> +4.8980219e+02 </wgt>
<wgt id='47'> +5.0316633e+02 </wgt>
<wgt id='48'> +4.8806920e+02 </wgt>
<wgt id='49'> +4.7927724e+02 </wgt>
<wgt id='50'> +5.8308396e+02 </wgt>
<wgt id='51'> +4.7226398e+02 </wgt>
<wgt id='52'> +4.8025291e+02 </wgt>
<wgt id='53'> +4.8089600e+02 </wgt>
<wgt id='54'> +4.8483329e+02 </wgt>
<wgt id='55'> +4.3158582e+02 </wgt>
<wgt id='56'> +4.4011251e+02 </wgt>
<wgt id='57'> +4.6959263e+02 </wgt>
<wgt id='58'> +4.7638655e+02 </wgt>
<wgt id='59'> +4.8403496e+02 </wgt>
<wgt id='60'> +4.7030996e+02 </wgt>
<wgt id='61'> +4.5160643e+02 </wgt>
<wgt id='62'> +4.7650196e+02 </wgt>
<wgt id='63'> +4.8227524e+02 </wgt>
<wgt id='64'> +4.6986888e+02 </wgt>
<wgt id='65'> +5.6372268e+02 </wgt>
<wgt id='66'> +4.7256915e+02 </wgt>
<wgt id='67'> +4.8580416e+02 </wgt>
<wgt id='68'> +5.2597842e+02 </wgt>
<wgt id='69'> +4.8087659e+02 </wgt>
<wgt id='70'> +4.7272311e+02 </wgt>
<wgt id='71'> +4.8973001e+02 </wgt>
<wgt id='72'> +4.5381073e+02 </wgt>
<wgt id='73'> +4.7061604e+02 </wgt>
<wgt id='74'> +5.0516921e+02 </wgt>
<wgt id='75'> +4.9468844e+02 </wgt>
<wgt id='76'> +4.6632504e+02 </wgt>
<wgt id='77'> +4.6909461e+02 </wgt>
<wgt id='78'> +4.7178378e+02 </wgt>
<wgt id='79'> +4.6812432e+02 </wgt>
<wgt id='80'> +4.7374743e+02 </wgt>
<wgt id='81'> +4.7004222e+02 </wgt>
<wgt id='82'> +4.8863881e+02 </wgt>
<wgt id='83'> +4.9536533e+02 </wgt>
<wgt id='84'> +5.3189500e+02 </wgt>
<wgt id='85'> +5.0494441e+02 </wgt>
<wgt id='86'> +4.8398385e+02 </wgt>
<wgt id='87'> +4.8438172e+02 </wgt>
<wgt id='88'> +4.9202738e+02 </wgt>
<wgt id='89'> +4.9511522e+02 </wgt>
<wgt id='90'> +4.8941342e+02 </wgt>
<wgt id='91'> +5.0824920e+02 </wgt>
<wgt id='92'> +4.2966406e+02 </wgt>
<wgt id='93'> +4.7812917e+02 </wgt>
<wgt id='94'> +4.7256675e+02 </wgt>
<wgt id='95'> +4.5961048e+02 </wgt>
<wgt id='96'> +5.2991403e+02 </wgt>
<wgt id='97'> +4.8330727e+02 </wgt>
<wgt id='98'> +4.6269529e+02 </wgt>
<wgt id='99'> +4.6317456e+02 </wgt>
<wgt id='100'> +4.6252968e+02 </wgt>
<wgt id='101'> +5.2291816e+02 </wgt>
<wgt id='102'> +4.8325099e+02 </wgt>
<wgt id='103'> +5.2777415e+02 </wgt>
<wgt id='104'> +4.8590910e+02 </wgt>
<wgt id='105'> +4.9454135e+02 </wgt>
<wgt id='106'> +4.3112597e+02 </wgt>
<wgt id='107'> +4.6197670e+02 </wgt>
<wgt id='108'> +4.2022885e+02 </wgt>
<wgt id='109'> +4.4532729e+02 </wgt>
<wgt id='110'> +4.7891623e+02 </wgt>
<wgt id='111'> +4.6463473e+02 </wgt>
<wgt id='112'> +4.5298845e+02 </wgt>
<wgt id='113'> +4.3738877e+02 </wgt>
<wgt id='114'> +4.6732506e+02 </wgt>
<wgt id='115'> +4.6808620e+02 </wgt>
<wgt id='116'> +4.9406499e+02 </wgt>
<wgt id='117'> +4.8258350e+02 </wgt>
<wgt id='118'> +5.0437781e+02 </wgt>
<wgt id='119'> +4.6003386e+02 </wgt>
<wgt id='120'> +4.7119518e+02 </wgt>
<wgt id='121'> +4.6414615e+02 </wgt>
<wgt id='122'> +4.7386433e+02 </wgt>
<wgt id='123'> +4.9044102e+02 </wgt>
<wgt id='124'> +5.2805313e+02 </wgt>
<wgt id='125'> +5.2864257e+02 </wgt>
<wgt id='126'> +5.0432576e+02 </wgt>
<wgt id='127'> +4.9909050e+02 </wgt>
<wgt id='128'> +4.4083575e+02 </wgt>
<wgt id='129'> +5.4741534e+02 </wgt>
<wgt id='130'> +4.8739662e+02 </wgt>
<wgt id='131'> +5.1319376e+02 </wgt>
<wgt id='132'> +4.8615913e+02 </wgt>
<wgt id='133'> +4.8787749e+02 </wgt>
<wgt id='134'> +4.5641534e+02 </wgt>
<wgt id='135'> +4.9288847e+02 </wgt>
<wgt id='136'> +4.7060713e+02 </wgt>
<wgt id='137'> +4.5849925e+02 </wgt>
<wgt id='138'> +4.5013663e+02 </wgt>
<wgt id='139'> +4.9506377e+02 </wgt>
<wgt id='140'> +5.0536719e+02 </wgt>
<wgt id='141'> +4.8476384e+02 </wgt>
<wgt id='142'> +4.7163676e+02 </wgt>
<wgt id='143'> +4.8259127e+02 </wgt>
<wgt id='144'> +4.7431822e+02 </wgt>
<wgt id='145'> +4.8251866e+02 </wgt>
</rwgt>
</event>
<event>
 8      1 +4.8159400e+02 1.80965700e+02 7.54677100e-03 1.16786400e-01
       21 -1    0    0  503  502 +0.0000000000e+00 +0.0000000000e+00 +9.8421376169e+02 9.8421376169e+02 0.0000000000e+00 0.0000e+00 1.0000e+00
       21 -1    0    0  501  503 -0.0000000000e+00 -0.0000000000e+00 -3.3363789038e+01 3.3363789038e+01 0.0000000000e+00 0.0000e+00 -1.0000e+00
        6  2    1    2  501    0 -2.6531045748e+01 +4.7342890198e+01 +3.8961998280e+02 4.2789316169e+02 1.6835552020e+02 0.0000e+00 0.0000e+00
       -6  2    1    2    0  502 +2.6531045748e+01 -4.7342890198e+01 +5.6122998985e+02 5.8968438904e+02 1.7263641426e+02 0.0000e+00 0.0000e+00
        5  1    3    3  501    0 -3.0758405143e+01 +7.3721489229e+01 +1.1214057843e+02 1.3776261028e+02 4.7000000000e+00 0.0000e+00 -1.0000e+00
       24  1    3    3    0    0 +4.2273593951e+00 -2.6378599031e+01 +2.7747940437e+02 2.9013055141e+02 8.0419002446e+01 0.0000e+00 0.0000e+00
       -5  1    4    4    0  502 +2.9361245599e+01 -1.1072671314e+01 +4.3214116078e+02 4.3330446528e+02 4.7000000000e+00 0.0000e+00 1.0000e+00
      -24  1    4    4    0    0 -2.8301998510e+00 -3.6270218884e+01 +1.2908882907e+02 1.5637992376e+02 8.0419002446e+01 0.0000e+00 1.0000e+00
<mgrwt>
<rscale>  2 0.17993714E+03</rscale>
<asrwt>0</asrwt>
<pdfrwt beam="1">  1       21 0.15141748E+00 0.18096568E+03</pdfrwt>
<pdfrwt beam="2">  1       21 0.51328914E-02 0.18096568E+03</pdfrwt>
<totfact> 0.75470087E+04</totfact>
</mgrwt>
<rwgt>
<wgt id='1'> +6.2626541e+02 </wgt>
<wgt id='2'> +6.2434804e+02 </wgt>
<wgt id='3'> +5.2561476e+02 </wgt>
<wgt id='4'> +6.8701408e+02 </wgt>
<wgt id='5'> +4.8061145e+02 </wgt>
<wgt id='6'> +5.9285267e+02 </wgt>
<wgt id='7'> +5.9099306e+02 </wgt>
<wgt id='8'> +4.9081711e+02 </wgt>
<wgt id='9'> +6.5288207e+02 </wgt>
<wgt id='10'> +4.4649681e+02 </wgt>
<wgt id='11'> +5.5077932e+02 </wgt>
<wgt id='12'> +5.4903243e+02 </wgt>
<wgt id='13'> +4.5559083e+02 </wgt>
<wgt id='14'> +6.0965886e+02 </wgt>
<wgt id='15'> +4.1446473e+02 </wgt>
<wgt id='16'> +5.0873628e+02 </wgt>
<wgt id='17'> +5.0740494e+02 </wgt>
<wgt id='18'> +4.3727820e+02 </wgt>
<wgt id='19'> +5.5309336e+02 </wgt>
<wgt id='20'> +4.0389702e+02 </wgt>
<wgt id='21'> +4.8029749e+02 </wgt>
<wgt id='22'> +4.0832877e+02 </wgt>
<wgt id='23'> +5.2561476e+02 </wgt>
<wgt id='24'> +3.7522770e+02 </wgt>
<wgt id='25'> +4.4741641e+02 </wgt>
<wgt id='26'> +4.4619627e+02 </wgt>
<wgt id='27'> +3.7902273e+02 </wgt>
<wgt id='28'> +4.9081711e+02 </wgt>
<wgt id='29'> +3.4830853e+02 </wgt>
<wgt id='30'> +4.2743740e+02 </wgt>
<wgt id='31'> +4.2643753e+02 </wgt>
<wgt id='32'> +3.7109489e+02 </wgt>
<wgt id='33'> +4.6013866e+02 </wgt>
<wgt id='34'> +3.4433095e+02 </wgt>
<wgt id='35'> +4.0463261e+02 </wgt>
<wgt id='36'> +4.0365566e+02 </wgt>
<wgt id='37'> +3.4652703e+02 </wgt>
<wgt id='38'> +4.3727820e+02 </wgt>
<wgt id='39'> +3.1988974e+02 </wgt>
<wgt id='40'> +3.7591679e+02 </wgt>
<wgt id='41'> +3.7499603e+02 </wgt>
<wgt id='42'> +3.2165655e+02 </wgt>
<wgt id='43'> +4.0832877e+02 </wgt>
<wgt id='44'> +2.9694056e+02 </wgt>
<wgt id='45'> +4.8159400e+02 </wgt>
<wgt id='46'> +4.9476494e+02 </wgt>
<wgt id='47'> +4.9056014e+02 </wgt>
<wgt id='48'> +4.8162896e+02 </wgt>
<wgt id='49'> +4.5990403e+02 </wgt>
<wgt id='50'> +5.5896063e+02 </wgt>
<wgt id='51'> +4.6183477e+02 </wgt>
<wgt id='52'> +4.6997978e+02 </wgt>
<wgt id='53'> +4.7406169e+02 </wgt>
<wgt id='54'> +5.0145508e+02 </wgt>
<wgt id='55'> +5.0396269e+02 </wgt>
<wgt id='56'> +4.5160760e+02 </wgt>
<wgt id='57'> +5.0237453e+02 </wgt>
<wgt id='58'> +4.5578363e+02 </wgt>
<wgt id='59'> +5.1782705e+02 </wgt>
<wgt id='60'> +4.9007910e+02 </wgt>
<wgt id='61'> +4.2955057e+02 </wgt>
<wgt id='62'> +4.5976838e+02 </wgt>
<wgt id='63'> +4.9564169e+02 </wgt>
<wgt id='64'> +4.7957870e+02 </wgt>
<wgt id='65'> +4.7691738e+02 </wgt>
<wgt id='66'> +4.7951357e+02 </wgt>
<wgt id='67'> +4.8303913e+02 </wgt>
<wgt id='68'> +5.5060781e+02 </wgt>
<wgt id='69'> +4.9513427e+02 </wgt>
<wgt id='70'> +4.9256204e+02 </wgt>
<wgt id='71'> +4.6794383e+02 </wgt>
<wgt id='72'> +4.6018793e+02 </wgt>
<wgt id='73'> +4.5227181e+02 </wgt>
<wgt id='74'> +5.2665897e+02 </wgt>
<wgt id='75'> +5.0167439e+02 </wgt>
<wgt id='76'> +4.8833556e+02 </wgt>
<wgt id='77'> +4.6921118e+02 </wgt>
<wgt id='78'> +4.3668833e+02 </wgt>
<wgt id='79'> +4.9717961e+02 </wgt>
<wgt id='80'> +4.4929951e+02 </wgt>
<wgt id='81'> +4.8408929e+02 </wgt>
<wgt id='82'> +4.6454523e+02 </wgt>
<wgt id='83'> +4.7595503e+02 </wgt>
<wgt id='84'> +4.8715532e+02 </wgt>
<wgt id='85'> +4.6077598e+02 </wgt>
<wgt id='86'> +4.9191269e+02 </wgt>
<wgt id='87'> +4.8196711e+02 </wgt>
<wgt id='88'> +4.7070962e+02 </wgt>
<wgt id='89'> +4.5441236e+02 </wgt>
<wgt id='90'> +4.7511976e+02 </wgt>
<wgt id='91'> +4.5501326e+02 </wgt>
<wgt id='92'> +4.5033906e+02 </wgt>
<wgt id='93'> +4.8376567e+02 </wgt>
<wgt id='94'> +4.5492193e+02 </wgt>
<wgt id='95'> +4.9764411e+02 </wgt>
<wgt id='96'> +5.0181813e+02 </wgt>
<wgt id='97'> +4.5594107e+02 </wgt>
<wgt id='98'> +4.9274192e+02 </wgt>
<wgt id='99'> +4.3399495e+02 </wgt>
<wgt id='100'> +4.1011764e+02 </wgt>
<wgt id='101'> +5.4664304e+02 </wgt>
<wgt id='102'> +5.2093240e+02 </wgt>
<wgt id='103'> +4.8849182e+02 </wgt>
<wgt id='104'> +4.9688499e+02 </wgt>
<wgt id='105'> +4.9542268e+02 </wgt>
<wgt id='106'> +4.5728887e+02 </wgt>
<wgt id='107'> +4.5999789e+02 </wgt>
<wgt id='108'> +4.4142872e+02 </wgt>
<wgt id='109'> +4.7007919e+02 </wgt>
<wgt id='110'> +4.6384697e+02 </wgt>
<wgt id='111'> +4.7078329e+02 </wgt>
<wgt id='112'> +4.8083986e+02 </wgt>
<wgt id='113'> +4.7650924e+02 </wgt>
<wgt id='114'> +4.8689640e+02 </wgt>
<wgt id='115'> +4.4357658e+02 </wgt>
<wgt id='116'> +5.1233323e+02 </wgt>
<wgt id='117'> +4.6985858e+02 </wgt>
<wgt id='118'> +5.0189484e+02 </wgt>
<wgt id='119'> +5.0070269e+02 </wgt>
<wgt id='120'> +4.7685321e+02 </wgt>
<wgt id='121'> +4.8103214e+02 </wgt>
<wgt id='122'> +4.7593073e+02 </wgt>
<wgt id='123'> +4.7160587e+02 </wgt>
<wgt id='124'> +5.3739812e+02 </wgt>
<wgt id='125'> +5.6543357e+02 </wgt>
<wgt id='126'> +4.8213572e+02 </wgt>
<wgt id='127'> +4.7764375e+02 </wgt>
<wgt id='128'> +4.4836321e+02 </wgt>
<wgt id='129'> +5.1198947e+02 </wgt>
<wgt id='130'> +4.6167992e+02 </wgt>
<wgt id='131'> +4.7010777e+02 </wgt>
<wgt id='132'> +5.2467238e+02 </wgt>
<wgt id='133'> +5.1143738e+02 </wgt>
<wgt id='134'> +4.9113783e+02 </wgt>
<wgt id='135'> +4.7368861e+02 </wgt>
<wgt id='136'> +5.4097474e+02 </wgt>
<wgt id='137'> +4.7934540e+02 </wgt>
<wgt id='138'> +4.7159507e+02 </wgt>
<wgt id='139'> +4.9687660e+02 </wgt>
<wgt id='140'> +4.7836400e+02 </wgt>
<wgt id='141'> +5.1267672e+02 </wgt>
<wgt id='142'> +3.9997062e+02 </wgt>
<wgt id='143'> +4.9710966e+02 </wgt>
<wgt id='144'> +4.5671388e+02 </wgt>
<wgt id='145'> +4.5940999e+02 </wgt>
</rwgt>
</event>
<event>
 8      1 +4.8159400e+02 2.74644100e+02 7.54677100e-03 1.09876200e-01
       21 -1    0    0  501  502 +0.0000000000e+00 +0.0000000000e+00 +8.9618718992e+02 8.9618718992e+02 0.0000000000e+00 0.0000e+00 -1.0000e+00
       21 -1    0    0  502  503 -0.0000000000e+00 -0.0000000000e+00 -9.4373870255e+01 9.4373870255e+01 0.0000000000e+00 0.0000e+00 1.0000e+00
       -6  2    1    2    0  503 -1.6977070267e+02 +1.2960922665e+02 +2.3557563065e+02 3.6123246115e+02 1.7138369267e+02 0.0000e+00 0.0000e+00
        6  2    1    2  501    0 +1.6977070267e+02 -1.2960922665e+02 +5.6623768902e+02 6.2932859903e+02 1.7265202570e+02 0.0000e+00 0.0000e+00
        5  1    4    4  501    0 +1.4173148320e+02 -6.2802028276e+01 +2.4137695112e+02 2.8690909817e+02 4.7000000000e+00 0.0000e+00 -1.0000e+00
       24  1    4    4    0    0 +2.8039219470e+01 -6.6807198375e+01 +3.2486073790e+02 3.4241950086e+02 8.0419002446e+01 0.0000e+00 1.0000e+00
       -5  1    3    3    0  503 -1.4150235689e+02 +3.9287255314e+01 +1.5279081645e+02 2.1197530287e+02 4.7000000000e+00 0.0000e+00 1.0000e+00
      -24  1    3    3    0    0 -2.8268345774e+01 +9.0321971337e+01 +8.2784814201e+01 1.4925715827e+02 8.0419002446e+01 0.0000e+00 1.0000e+00
<mgrwt>
<rscale>  2 0.27444497E+03</rscale>
<asrwt>0</asrwt>
<pdfrwt beam="1">  1       21 0.13787495E+00 0.27464407E+03</pdfrwt>
<pdfrwt beam="2">  1       21 0.14519058E-01 0.27464407E+03</pdfrwt>
<totfact> 0.14752626E+04</totfact>
</mgrwt>
<rwgt>
<wgt id='1'> +6.3470544e+02 </wgt>
<wgt id='2'> +5.0378484e+02 </wgt>
<wgt id='3'> +4.8662347e+02 </wgt>
<wgt id='4'> +6.4176230e+02 </wgt>
<wgt id='5'> +4.7101711e+02 </wgt>
<wgt id='6'> +5.7998632e+02 </wgt>
<wgt id='7'> +4.5816579e+02 </wgt>
<wgt id='8'> +4.4267907e+02 </wgt>
<wgt id='9'> +5.8684729e+02 </wgt>
<wgt id='10'> +4.2859846e+02 </wgt>
<wgt id='11'> +5.2765655e+02 </wgt>
<wgt id='12'> +4.1767722e+02 </wgt>
<wgt id='13'> +4.0369830e+02 </wgt>
<wgt id='14'> +5.3385221e+02 </wgt>
<wgt id='15'> +3.9098756e+02 </wgt>
<wgt id='16'> +5.2703025e+02 </wgt>
<wgt id='17'> +4.2624465e+02 </wgt>
<wgt id='18'> +4.1245573e+02 </wgt>
<wgt id='19'> +5.3215990e+02 </wgt>
<wgt id='20'> +3.9989107e+02 </wgt>
<wgt id='21'> +3.8764706e+02 </wgt>
<wgt id='22'> +3.7520903e+02 </wgt>
<wgt id='23'> +4.8662347e+02 </wgt>
<wgt id='24'> +3.6387786e+02 </wgt>
<wgt id='25'> +4.3814176e+02 </wgt>
<wgt id='26'> +3.5339031e+02 </wgt>
<wgt id='27'> +3.4216943e+02 </wgt>
<wgt id='28'> +4.4267907e+02 </wgt>
<wgt id='29'> +3.3194640e+02 </wgt>
<wgt id='30'> +4.4693873e+02 </wgt>
<wgt id='31'> +3.6531849e+02 </wgt>
<wgt id='32'> +3.5403750e+02 </wgt>
<wgt id='33'> +4.5105181e+02 </wgt>
<wgt id='34'> +3.4373674e+02 </wgt>
<wgt id='35'> +4.0840732e+02 </wgt>
<wgt id='36'> +3.3223793e+02 </wgt>
<wgt id='37'> +3.2206624e+02 </wgt>
<wgt id='38'> +4.1245573e+02 </wgt>
<wgt id='39'> +3.1278065e+02 </wgt>
<wgt id='40'> +3.7155841e+02 </wgt>
<wgt id='41'> +3.0287774e+02 </wgt>
<wgt id='42'> +2.9370621e+02 </wgt>
<wgt id='43'> +3.7520903e+02 </wgt>
<wgt id='44'> +2.8533314e+02 </wgt>
<wgt id='45'> +4.8159400e+02 </wgt>
<wgt id='46'> +4.9569261e+02 </wgt>
<wgt id='47'> +4.9724159e+02 </wgt>
<wgt id='48'> +4.8430742e+02 </wgt>
<wgt id='49'> +4.6185557e+02 </wgt>
<wgt id='50'> +5.7810469e+02 </wgt>
<wgt id='51'> +4.6307736e+02 </wgt>
<wgt id='52'> +4.7117228e+02 </wgt>
<wgt id='53'> +4.7621109e+02 </wgt>
<wgt id='54'> +4.9890935e+02 </wgt>
<wgt id='55'> +4.8582684e+02 </wgt>
<wgt id='56'> +4.4408179e+02 </wgt>
<wgt id='57'> +4.9579808e+02 </wgt>
<wgt id='58'> +4.5529739e+02 </wgt>
<wgt id='59'> +5.1199812e+02 </wgt>
<wgt id='60'> +4.8226512e+02 </wgt>
<wgt id='61'> +4.2210526e+02 </wgt>
<wgt id='62'> +4.6238773e+02 </wgt>
<wgt id='63'> +4.9218205e+02 </wgt>
<wgt id='64'> +4.7517455e+02 </wgt>
<wgt id='65'> +5.0241662e+02 </wgt>
<wgt id='66'> +4.7866882e+02 </wgt>
<wgt id='67'> +4.8383608e+02 </wgt>
<wgt id='68'> +5.5047148e+02 </wgt>
<wgt id='69'> +4.9756202e+02 </wgt>
<wgt id='70'> +4.8794945e+02 </wgt>
<wgt id='71'> +4.7324512e+02 </wgt>
<wgt id='72'> +4.5358386e+02 </wgt>
<wgt id='73'> +4.5223329e+02 </wgt>
<wgt id='74'> +5.2553828e+02 </wgt>
<wgt id='75'> +5.0205435e+02 </wgt>
<wgt id='76'> +4.8364366e+02 </wgt>
<wgt id='77'> +4.6813508e+02 </wgt>
<wgt id='78'> +4.4120012e+02 </wgt>
<wgt id='79'> +4.9031401e+02 </wgt>
<wgt id='80'> +4.5287398e+02 </wgt>
<wgt id='81'> +4.7991694e+02 </wgt>
<wgt id='82'> +4.6705900e+02 </wgt>
<wgt id='83'> +4.8341804e+02 </wgt>
<wgt id='84'> +5.0170621e+02 </wgt>
<wgt id='85'> +4.6929986e+02 </wgt>
<wgt id='86'> +4.9219996e+02 </wgt>
<wgt id='87'> +4.8246216e+02 </wgt>
<wgt id='88'> +4.7879470e+02 </wgt>
<wgt id='89'> +4.6126462e+02 </wgt>
<wgt id='90'> +4.7775121e+02 </wgt>
<wgt id='91'> +4.6570454e+02 </wgt>
<wgt id='92'> +4.4078032e+02 </wgt>
<wgt id='93'> +4.8247917e+02 </wgt>
<wgt id='94'> +4.5598925e+02 </wgt>
<wgt id='95'> +4.8898351e+02 </wgt>
<wgt id='96'> +5.1193980e+02 </wgt>
<wgt id='97'> +4.6058495e+02 </wgt>
<wgt id='98'> +4.8802888e+02 </wgt>
<wgt id='99'> +4.3582607e+02 </wgt>
<wgt id='100'> +4.1460137e+02 </wgt>
<wgt id='101'> +5.4769950e+02 </wgt>
<wgt id='102'> +5.1720684e+02 </wgt>
<wgt id='103'> +4.9838922e+02 </wgt>
<wgt id='104'> +4.9839702e+02 </wgt>
<wgt id='105'> +4.9481508e+02 </wgt>
<wgt id='106'> +4.4670183e+02 </wgt>
<wgt id='107'> +4.5602897e+02 </wgt>
<wgt id='108'> +4.3215859e+02 </wgt>
<wgt id='109'> +4.6157301e+02 </wgt>
<wgt id='110'> +4.6392904e+02 </wgt>
<wgt id='111'> +4.6897759e+02 </wgt>
<wgt id='112'> +4.7230775e+02 </wgt>
<wgt id='113'> +4.6488044e+02 </wgt>
<wgt id='114'> +4.8054606e+02 </wgt>
<wgt id='115'> +4.4920918e+02 </wgt>
<wgt id='116'> +5.1290753e+02 </wgt>
<wgt id='117'> +4.7276156e+02 </wgt>
<wgt id='118'> +5.0543020e+02 </wgt>
<wgt id='119'> +4.8995768e+02 </wgt>
<wgt id='120'> +4.7676764e+02 </wgt>
<wgt id='121'> +4.7498113e+02 </wgt>
<wgt id='122'> +4.7486397e+02 </wgt>
<wgt id='123'> +4.7759648e+02 </wgt>
<wgt id='124'> +5.4152600e+02 </wgt>
<wgt id='125'> +5.6399404e+02 </wgt>
<wgt id='126'> +4.8775531e+02 </wgt>
<wgt id='127'> +4.8273347e+02 </wgt>
<wgt id='128'> +4.4564709e+02 </wgt>
<wgt id='129'> +5.2274672e+02 </wgt>
<wgt id='130'> +4.7074335e+02 </wgt>
<wgt id='131'> +4.7908604e+02 </wgt>
<wgt id='132'> +5.1767895e+02 </wgt>
<wgt id='133'> +5.0873538e+02 </wgt>
<wgt id='134'> +4.8301519e+02 </wgt>
<wgt id='135'> +4.7719097e+02 </wgt>
<wgt id='136'> +5.2744286e+02 </wgt>
<wgt id='137'> +4.7683748e+02 </wgt>
<wgt id='138'> +4.7095866e+02 </wgt>
<wgt id='139'> +4.9667153e+02 </wgt>
<wgt id='140'> +4.8343394e+02 </wgt>
<wgt id='141'> +5.1000542e+02 </wgt>
<wgt id='142'> +4.1036835e+02 </wgt>
<wgt id='143'> +4.9398284e+02 </wgt>
<wgt id='144'> +4.5702272e+02 </wgt>
<wgt id='145'> +4.6486369e+02 </wgt>
</rwgt>
</event>
<event>
 8      1 +4.8159400e+02 2.08285100e+02 7.54677100e-03 1.14348800e-01
       21 -1    0    0  503  502 +0.0000000000e+00 +0.0000000000e+00 +1.3064092624e+02 1.3064092624e+02 0.0000000000e+00 0.0000e+00 1.0000e+00
       21 -1    0    0  501  503 -0.0000000000e+00 -0.0000000000e+00 -3.2897903505e+02 3.2897903505e+02 0.0000000000e+00 0.0000e+00 1.0000e+00
        6  2    1    2  501    0 -1.0834673165e+02 +2.3232628938e+01 -8.5419230744e+01 2.2512026696e+02 1.7636303555e+02 0.0000e+00 0.0000e+00
       -6  2    1    2    0  502 +1.0834673165e+02 -2.3232628938e+01 -1.1291887807e+02 2.3449969433e+02 1.7309149116e+02 0.0000e+00 0.0000e+00
        5  1    3    3  501    0 -3.5954166162e+01 -3.0786034769e+01 +3.1383660506e+01 5.6986894528e+01 4.7000000000e+00 0.0000e+00 -1.0000e+00
       24  1    3    3    0    0 -7.2392565490e+01 +5.4018663707e+01 -1.1680289125e+02 1.6813337243e+02 8.0419002446e+01 0.0000e+00 0.0000e+00
       -5  1    4    4    0  502 -6.1961553633e+00 -5.5297636696e+01 -7.4320169848e+00 5.6334233304e+01 4.7000000000e+00 0.0000e+00 1.0000e+00
      -24  1    4    4    0    0 +1.1454288702e+02 +3.2065007758e+01 -1.0548686108e+02 1.7816546103e+02 8.0419002446e+01 0.0000e+00 0.0000e+00
<mgrwt>
<rscale>  2 0.20759096E+03</rscale>
<asrwt>0</asrwt>
<pdfrwt beam="1">  1       21 0.20098604E-01 0.20828512E+03</pdfrwt>
<pdfrwt beam="2">  1       21 0.50612159E-01 0.20828512E+03</pdfrwt>
<totfact> 0.84405874E+04</totfact>
</mgrwt>
<rwgt>
<wgt id='1'> +6.1539715e+02 </wgt>
<wgt id='2'> +5.1646207e+02 </wgt>
<wgt id='3'> +5.0222371e+02 </wgt>
<wgt id='4'> +6.4335123e+02 </wgt>
<wgt id='5'> +4.8195604e+02 </wgt>
<wgt id='6'> +5.8863561e+02 </wgt>
<wgt id='7'> +4.8699280e+02 </wgt>
<wgt id='8'> +4.7304220e+02 </wgt>
<wgt id='9'> +6.1760102e+02 </wgt>
<wgt id='10'> +4.5360282e+02 </wgt>
<wgt id='11'> +5.5400335e+02 </wgt>
<wgt id='12'> +4.5813804e+02 </wgt>
<wgt id='13'> +4.4499236e+02 </wgt>
<wgt id='14'> +5.8171556e+02 </wgt>
<wgt id='15'> +4.2668432e+02 </wgt>
<wgt id='16'> +5.0348903e+02 </wgt>
<wgt id='17'> +4.3307026e+02 </wgt>
<wgt id='18'> +4.2225612e+02 </wgt>
<wgt id='19'> +5.2316339e+02 </wgt>
<wgt id='20'> +4.0646558e+02 </wgt>
<wgt id='21'> +4.0835932e+02 </wgt>
<wgt id='22'> +3.9772110e+02 </wgt>
<wgt id='23'> +5.0222371e+02 </wgt>
<wgt id='24'> +3.8255343e+02 </wgt>
<wgt id='25'> +4.5325951e+02 </wgt>
<wgt id='26'> +3.8416366e+02 </wgt>
<wgt id='27'> +3.7413754e+02 </wgt>
<wgt id='28'> +4.7304220e+02 </wgt>
<wgt id='29'> +3.5985127e+02 </wgt>
<wgt id='30'> +4.2463740e+02 </wgt>
<wgt id='31'> +3.6875527e+02 </wgt>
<wgt id='32'> +3.6008150e+02 </wgt>
<wgt id='33'> +4.3986163e+02 </wgt>
<wgt id='34'> +3.4736606e+02 </wgt>
<wgt id='35'> +4.0617136e+02 </wgt>
<wgt id='36'> +3.4771413e+02 </wgt>
<wgt id='37'> +3.3915911e+02 </wgt>
<wgt id='38'> +4.2225612e+02 </wgt>
<wgt id='39'> +3.2693070e+02 </wgt>
<wgt id='40'> +3.8227434e+02 </wgt>
<wgt id='41'> +3.2711176e+02 </wgt>
<wgt id='42'> +3.1904809e+02 </wgt>
<wgt id='43'> +3.9772110e+02 </wgt>
<wgt id='44'> +3.0752940e+02 </wgt>
<wgt id='45'> +4.8159400e+02 </wgt>
<wgt id='46'> +4.8141218e+02 </wgt>
<wgt id='47'> +4.9761094e+02 </wgt>
<wgt id='48'> +4.8251281e+02 </wgt>
<wgt id='49'> +4.8030585e+02 </wgt>
<wgt id='50'> +5.5831979e+02 </wgt>
<wgt id='51'> +4.7235123e+02 </wgt>
<wgt id='52'> +4.7895825e+02 </wgt>
<wgt id='53'> +4.8694233e+02 </wgt>
<wgt id='54'> +4.8444297e+02 </wgt>
<wgt id='55'> +4.3330542e+02 </wgt>
<wgt id='56'> +4.4910493e+02 </wgt>
<wgt id='57'> +4.7000909e+02 </wgt>
<wgt id='58'> +4.8499988e+02 </wgt>
<wgt id='59'> +4.7546401e+02 </wgt>
<wgt id='60'> +4.6294158e+02 </wgt>
<wgt id='61'> +4.6831221e+02 </wgt>
<wgt id='62'> +4.7508480e+02 </wgt>
<wgt id='63'> +4.8204067e+02 </wgt>
<wgt id='64'> +4.7750091e+02 </wgt>
<wgt id='65'> +5.6405734e+02 </wgt>
<wgt id='66'> +4.7039231e+02 </wgt>
<wgt id='67'> +4.8582845e+02 </wgt>
<wgt id='68'> +5.1511786e+02 </wgt>
<wgt id='69'> +4.6925428e+02 </wgt>
<wgt id='70'> +4.7406317e+02 </wgt>
<wgt id='71'> +4.9053484e+02 </wgt>
<wgt id='72'> +4.7009574e+02 </wgt>
<wgt id='73'> +4.7541198e+02 </wgt>
<wgt id='74'> +4.9538889e+02 </wgt>
<wgt id='75'> +4.9169660e+02 </wgt>
<wgt id='76'> +4.6867290e+02 </wgt>
<wgt id='77'> +4.6436092e+02 </wgt>
<wgt id='78'> +4.8154174e+02 </wgt>
<wgt id='79'> +4.6266996e+02 </wgt>
<wgt id='80'> +4.7749030e+02 </wgt>
<wgt id='81'> +4.7330081e+02 </wgt>
<wgt id='82'> +4.9362108e+02 </wgt>
<wgt id='83'> +4.9044519e+02 </wgt>
<wgt id='84'> +5.2667828e+02 </wgt>
<wgt id='85'> +5.0516339e+02 </wgt>
<wgt id='86'> +4.7815969e+02 </wgt>
<wgt id='87'> +4.8148960e+02 </wgt>
<wgt id='88'> +4.8896994e+02 </wgt>
<wgt id='89'> +4.9212497e+02 </wgt>
<wgt id='90'> +4.8706330e+02 </wgt>
<wgt id='91'> +5.1103506e+02 </wgt>
<wgt id='92'> +4.4572964e+02 </wgt>
<wgt id='93'> +4.7329759e+02 </wgt>
<wgt id='94'> +4.7927938e+02 </wgt>
<wgt id='95'> +4.6362887e+02 </wgt>
<wgt id='96'> +5.1791212e+02 </wgt>
<wgt id='97'> +4.8874833e+02 </wgt>
<wgt id='98'> +4.6035973e+02 </wgt>
<wgt id='99'> +4.6768763e+02 </wgt>
<wgt id='100'> +4.7800997e+02 </wgt>
<wgt id='101'> +5.0500083e+02 </wgt>
<wgt id='102'> +4.6796037e+02 </wgt>
<wgt id='103'> +5.2113552e+02 </wgt>
<wgt id='104'> +4.8039941e+02 </wgt>
<wgt id='105'> +5.0083489e+02 </wgt>
<wgt id='106'> +4.4518167e+02 </wgt>
<wgt id='107'> +4.7636234e+02 </wgt>
<wgt id='108'> +4.3360847e+02 </wgt>
<wgt id='109'> +4.5394817e+02 </wgt>
<wgt id='110'> +4.8261350e+02 </wgt>
<wgt id='111'> +4.6979449e+02 </wgt>
<wgt id='112'> +4.6040332e+02 </wgt>
<wgt id='113'> +4.4388960e+02 </wgt>
<wgt id='114'> +4.8117487e+02 </wgt>
<wgt id='115'> +4.8197722e+02 </wgt>
<wgt id='116'> +4.8060612e+02 </wgt>
<wgt id='117'> +4.8752266e+02 </wgt>
<wgt id='118'> +4.9282688e+02 </wgt>
<wgt id='119'> +4.6415908e+02 </wgt>
<wgt id='120'> +4.7928547e+02 </wgt>
<wgt id='121'> +4.6909789e+02 </wgt>
<wgt id='122'> +4.7576350e+02 </wgt>
<wgt id='123'> +4.8696531e+02 </wgt>
<wgt id='124'> +5.1296652e+02 </wgt>
<wgt id='125'> +5.1443783e+02 </wgt>
<wgt id='126'> +4.9881660e+02 </wgt>
<wgt id='127'> +4.9495337e+02 </wgt>
<wgt id='128'> +4.4782609e+02 </wgt>
<wgt id='129'> +5.4326856e+02 </wgt>
<wgt id='130'> +4.8423269e+02 </wgt>
<wgt id='131'> +5.1442985e+02 </wgt>
<wgt id='132'> +4.7766198e+02 </wgt>
<wgt id='133'> +4.7824920e+02 </wgt>
<wgt id='134'> +4.5443813e+02 </wgt>
<wgt id='135'> +4.9339402e+02 </wgt>
<wgt id='136'> +4.6356945e+02 </wgt>
<wgt id='137'> +4.5400413e+02 </wgt>
<wgt id='138'> +4.3810929e+02 </wgt>
<wgt id='139'> +4.9043436e+02 </wgt>
<wgt id='140'> +5.1090271e+02 </wgt>
<wgt id='141'> +4.8091667e+02 </wgt>
<wgt id='142'> +4.8425324e+02 </wgt>
<wgt id='143'> +4.7806522e+02 </wgt>
<wgt id='144'> +4.8164059e+02 </wgt>
<wgt id='145'> +4.8256905e+02 </wgt>
</rwgt>
</event>
<event>
 8      1 +4.8159400e+02 2.22599300e+02 7.54677100e-03 1.13210400e-01
       21 -1    0    0  503  502 +0.0000000000e+00 +0.0000000000e+00 +1.5823399958e+02 1.5823399958e+02 0.0000000000e+00 0.0000e+00 1.0000e+00
       21 -1    0    0  501  503 -0.0000000000e+00 -0.0000000000e+00 -5.6426331934e+02 5.6426331934e+02 0.0000000000e+00 0.0000e+00 1.0000e+00
        6  2    1    2  501    0 +8.2437862608e+01 +1.1295936982e+02 -4.4433639917e+02 4.9662596698e+02 1.7218215656e+02 0.0000e+00 0.0000e+00
       -6  2    1    2    0  502 -8.2437862608e+01 -1.1295936982e+02 +3.8307079405e+01 2.2587135193e+02 1.7318953453e+02 0.0000e+00 0.0000e+00
        5  1    3    3  501    0 +2.2369422283e+01 -2.6395247095e+01 -2.3482318631e+01 4.2078609896e+01 4.7000000000e+00 0.0000e+00 -1.0000e+00
       24  1    3    3    0    0 +6.0068440325e+01 +1.3935461691e+02 -4.2085408054e+02 4.5454735709e+02 8.0419002446e+01 0.0000e+00 0.0000e+00
       -5  1    4    4    0  502 -7.0456363296e+01 -8.8347949957e+01 -2.9834741957e+01 1.1696863348e+02 4.7000000000e+00 0.0000e+00 1.0000e+00
      -24  1    4    4    0    0 -1.1981499312e+01 -2.4611419860e+01 +6.8141821362e+01 1.0890271845e+02 8.0419002446e+01 0.0000e+00 1.0000e+00
<mgrwt>
<rscale>  2 0.22240329E+03</rscale>
<asrwt>0</asrwt>
<pdfrwt beam="1">  1       21 0.24343691E-01 0.22259927E+03</pdfrwt>
<pdfrwt beam="2">  1       21 0.86809744E-01 0.22259927E+03</pdfrwt>
<totfact> 0.17867707E+04</totfact>
</mgrwt>
<rwgt>
<wgt id='1'> +6.3253985e+02 </wgt>
<wgt id='2'> +5.3253836e+02 </wgt>
<wgt id='3'> +4.9935227e+02 </wgt>
<wgt id='4'> +6.5757021e+02 </wgt>
<wgt id='5'> +4.3109691e+02 </wgt>
<wgt id='6'> +5.8635750e+02 </wgt>
<wgt id='7'> +4.8864987e+02 </wgt>
<wgt id='8'> +4.5774570e+02 </wgt>
<wgt id='9'> +6.1120827e+02 </wgt>
<wgt id='10'> +3.9560755e+02 </wgt>
<wgt id='11'> +5.3767077e+02 </wgt>
<wgt id='12'> +4.4859084e+02 </wgt>
<wgt id='13'> +4.2042325e+02 </wgt>
<wgt id='14'> +5.6028173e+02 </wgt>
<wgt id='15'> +3.6379849e+02 </wgt>
<wgt id='16'> +5.1952503e+02 </wgt>
<wgt id='17'> +4.4670092e+02 </wgt>
<wgt id='18'> +4.2092082e+02 </wgt>
<wgt id='19'> +5.3722960e+02 </wgt>
<wgt id='20'> +3.6618941e+02 </wgt>
<wgt id='21'> +4.0988662e+02 </wgt>
<wgt id='22'> +3.8584924e+02 </wgt>
<wgt id='23'> +4.9935227e+02 </wgt>
<wgt id='24'> +3.3604345e+02 </wgt>
<wgt id='25'> +4.4160605e+02 </wgt>
<wgt id='26'> +3.7628452e+02 </wgt>
<wgt id='27'> +3.5438890e+02 </wgt>
<wgt id='28'> +4.5774570e+02 </wgt>
<wgt id='29'> +3.0902368e+02 </wgt>
<wgt id='30'> +4.3873808e+02 </wgt>
<wgt id='31'> +3.8042862e+02 </wgt>
<wgt id='32'> +3.5956292e+02 </wgt>
<wgt id='33'> +4.5284890e+02 </wgt>
<wgt id='34'> +3.1490900e+02 </wgt>
<wgt id='35'> +4.0670538e+02 </wgt>
<wgt id='36'> +3.4907607e+02 </wgt>
<wgt id='37'> +3.2960375e+02 </wgt>
<wgt id='38'> +4.2092082e+02 </wgt>
<wgt id='39'> +2.8898462e+02 </wgt>
<wgt id='40'> +3.7293562e+02 </wgt>
<wgt id='41'> +3.2045916e+02 </wgt>
<wgt id='42'> +3.0272940e+02 </wgt>
<wgt id='43'> +3.8584924e+02 </wgt>
<wgt id='44'> +2.6574864e+02 </wgt>
<wgt id='45'> +4.8159400e+02 </wgt>
<wgt id='46'> +4.9205725e+02 </wgt>
<wgt id='47'> +5.0085376e+02 </wgt>
<wgt id='48'> +4.8731983e+02 </wgt>
<wgt id='49'> +4.7558313e+02 </wgt>
<wgt id='50'> +5.8394972e+02 </wgt>
<wgt id='51'> +4.7027373e+02 </wgt>
<wgt id='52'> +4.8024633e+02 </wgt>
<wgt id='53'> +4.7783333e+02 </wgt>
<wgt id='54'> +4.8799280e+02 </wgt>
<wgt id='55'> +4.4417789e+02 </wgt>
<wgt id='56'> +4.3790105e+02 </wgt>
<wgt id='57'> +4.7733947e+02 </wgt>
<wgt id='58'> +4.7188226e+02 </wgt>
<wgt id='59'> +4.9346989e+02 </wgt>
<wgt id='60'> +4.7549199e+02 </wgt>
<wgt id='61'> +4.3050534e+02 </wgt>
<wgt id='62'> +4.7380815e+02 </wgt>
<wgt id='63'> +4.8327509e+02 </wgt>
<wgt id='64'> +4.7055502e+02 </wgt>
<wgt id='65'> +5.5021525e+02 </wgt>
<wgt id='66'> +4.7292995e+02 </wgt>
<wgt id='67'> +4.8501173e+02 </wgt>
<wgt id='68'> +5.3164406e+02 </wgt>
<wgt id='69'> +4.8303821e+02 </wgt>
<wgt id='70'> +4.7412793e+02 </wgt>
<wgt id='71'> +4.8737684e+02 </wgt>
<wgt id='72'> +4.5624814e+02 </wgt>
<wgt id='73'> +4.6681391e+02 </wgt>
<wgt id='74'> +5.0959993e+02 </wgt>
<wgt id='75'> +4.9476618e+02 </wgt>
<wgt id='76'> +4.7104661e+02 </wgt>
<wgt id='77'> +4.7050753e+02 </wgt>
<wgt id='78'> +4.6386685e+02 </wgt>
<wgt id='79'> +4.7280474e+02 </wgt>
<wgt id='80'> +4.6922644e+02 </wgt>
<wgt id='81'> +4.7098610e+02 </wgt>
<wgt id='82'> +4.8007358e+02 </wgt>
<wgt id='83'> +4.9198029e+02 </wgt>
<wgt id='84'> +5.2527828e+02 </wgt>
<wgt id='85'> +4.9682586e+02 </wgt>
<wgt id='86'> +4.8500147e+02 </wgt>
<wgt id='87'> +4.8486996e+02 </wgt>
<wgt id='88'> +4.8795088e+02 </wgt>
<wgt id='89'> +4.9040322e+02 </wgt>
<wgt id='90'> +4.8993172e+02 </wgt>
<wgt id='91'> +4.9912473e+02 </wgt>
<wgt id='92'> +4.3231668e+02 </wgt>
<wgt id='93'> +4.7916220e+02 </wgt>
<wgt id='94'> +4.6881131e+02 </wgt>
<wgt id='95'> +4.6815963e+02 </wgt>
<wgt id='96'> +5.2433191e+02 </wgt>
<wgt id='97'> +4.7837894e+02 </wgt>
<wgt id='98'> +4.6770602e+02 </wgt>
<wgt id='99'> +4.5761859e+02 </wgt>
<wgt id='100'> +4.5146003e+02 </wgt>
<wgt id='101'> +5.3087515e+02 </wgt>
<wgt id='102'> +4.9205245e+02 </wgt>
<wgt id='103'> +5.2352974e+02 </wgt>
<wgt id='104'> +4.8737157e+02 </wgt>
<wgt id='105'> +4.9565105e+02 </wgt>
<wgt id='106'> +4.3366077e+02 </wgt>
<wgt id='107'> +4.5861302e+02 </wgt>
<wgt id='108'> +4.2063682e+02 </wgt>
<wgt id='109'> +4.4873452e+02 </wgt>
<wgt id='110'> +4.7676944e+02 </wgt>
<wgt id='111'> +4.6613665e+02 </wgt>
<wgt id='112'> +4.5415644e+02 </wgt>
<wgt id='113'> +4.4166561e+02 </wgt>
<wgt id='114'> +4.6926723e+02 </wgt>
<wgt id='115'> +4.6100609e+02 </wgt>
<wgt id='116'> +4.9856707e+02 </wgt>
<wgt id='117'> +4.7895857e+02 </wgt>
<wgt id='118'> +5.0630672e+02 </wgt>
<wgt id='119'> +4.6566778e+02 </wgt>
<wgt id='120'> +4.7102114e+02 </wgt>
<wgt id='121'> +4.6812560e+02 </wgt>
<wgt id='122'> +4.7507197e+02 </wgt>
<wgt id='123'> +4.8772518e+02 </wgt>
<wgt id='124'> +5.3351914e+02 </wgt>
<wgt id='125'> +5.3710129e+02 </wgt>
<wgt id='126'> +5.0063998e+02 </wgt>
<wgt id='127'> +4.9658896e+02 </wgt>
<wgt id='128'> +4.3817056e+02 </wgt>
<wgt id='129'> +5.4432986e+02 </wgt>
<wgt id='130'> +4.8171212e+02 </wgt>
<wgt id='131'> +5.0637232e+02 </wgt>
<wgt id='132'> +4.9763509e+02 </wgt>
<wgt id='133'> +4.9329716e+02 </wgt>
<wgt id='134'> +4.6282988e+02 </wgt>
<wgt id='135'> +4.9002944e+02 </wgt>
<wgt id='136'> +4.8657113e+02 </wgt>
<wgt id='137'> +4.6078987e+02 </wgt>
<wgt id='138'> +4.5273249e+02 </wgt>
<wgt id='139'> +4.9635382e+02 </wgt>
<wgt id='140'> +4.9976948e+02 </wgt>
<wgt id='141'> +4.8879709e+02 </wgt>
<wgt id='142'> +4.5751416e+02 </wgt>
<wgt id='143'> +4.8736347e+02 </wgt>
<wgt id='144'> +4.7109028e+02 </wgt>
<wgt id='145'> +4.7962721e+02 </wgt>
</rwgt>
</event>
<event>
 8      1 +4.8159400e+02 1.97750500e+02 7.54677100e-03 1.15170200e-01
       21 -1    0    0  501  502 +0.0000000000e+00 +0.0000000000e+00 +3.8831430197e+02 3.8831430197e+02 0.0000000000e+00 0.0000e+00 1.0000e+00
       21 -1    0    0  502  503 -0.0000000000e+00 -0.0000000000e+00 -2.6373358707e+02 2.6373358707e+02 0.0000000000e+00 0.0000e+00 -1.0000e+00
       -6  2    1    2    0  503 +7.2498409359e+01 -6.1393510976e+01 -1.9412016996e+02 2.7710631369e+02 1.7343611548e+02 0.0000e+00 0.0000e+00
        6  2    1    2  501    0 -7.2498409359e+01 +6.1393510976e+01 +3.1870088486e+02 3.7494157535e+02 1.7316393494e+02 0.0000e+00 0.0000e+00
        5  1    4    4  501    0 -7.7372157992e+01 +8.1597736947e+01 +1.5723283255e+02 1.9336208299e+02 4.7000000000e+00 0.0000e+00 -1.0000e+00
       24  1    4    4    0    0 +4.8737486332e+00 -2.0204225971e+01 +1.6146805231e+02 1.8157949236e+02 8.0419002446e+01 0.0000e+00 0.0000e+00
       -5  1    3    3    0  503 +2.6141002614e+01 -3.5268281452e+01 +1.5158003355e+01 4.6680389458e+01 4.7000000000e+00 0.0000e+00 1.0000e+00
      -24  1    3    3    0    0 +4.6357406744e+01 -2.6125229524e+01 -2.0927817332e+02 2.3042592423e+02 8.0419002446e+01 0.0000e+00 0.0000e+00
<mgrwt>
<rscale>  2 0.19769083E+03</rscale>
<asrwt>0</asrwt>
<pdfrwt beam="1">  1       21 0.59740662E-01 0.19775052E+03</pdfrwt>
<pdfrwt beam="2">  1       21 0.40574398E-01 0.19775052E+03</pdfrwt>
<totfact> 0.15256625E+04</totfact>
</mgrwt>
<rwgt>
<wgt id='1'> +6.3571497e+02 </wgt>
<wgt id='2'> +5.9045585e+02 </wgt>
<wgt id='3'> +5.1303917e+02 </wgt>
<wgt id='4'> +6.8033207e+02 </wgt>
<wgt id='5'> +4.0138858e+02 </wgt>
<wgt id='6'> +5.9020738e+02 </wgt>
<wgt id='7'> +5.4555504e+02 </wgt>
<wgt id='8'> +4.7021514e+02 </wgt>
<wgt id='9'> +6.3352121e+02 </wgt>
<wgt id='10'> +3.6801577e+02 </wgt>
<wgt id='11'> +5.4032689e+02 </wgt>
<wgt id='12'> +4.9974402e+02 </wgt>
<wgt id='13'> +4.3118748e+02 </wgt>
<wgt id='14'> +5.8064038e+02 </wgt>
<wgt id='15'> +3.3822115e+02 </wgt>
<wgt id='16'> +5.1872702e+02 </wgt>
<wgt id='17'> +4.8656249e+02 </wgt>
<wgt id='18'> +4.3004619e+02 </wgt>
<wgt id='19'> +5.5094762e+02 </wgt>
<wgt id='20'> +3.4139831e+02 </wgt>
<wgt id='21'> +4.4956218e+02 </wgt>
<wgt id='22'> +3.9414968e+02 </wgt>
<wgt id='23'> +5.1303917e+02 </wgt>
<wgt id='24'> +3.1301330e+02 </wgt>
<wgt id='25'> +4.4089281e+02 </wgt>
<wgt id='26'> +4.1181182e+02 </wgt>
<wgt id='27'> +3.6143542e+02 </wgt>
<wgt id='28'> +4.7021514e+02 </wgt>
<wgt id='29'> +2.8767169e+02 </wgt>
<wgt id='30'> +4.3701394e+02 </wgt>
<wgt id='31'> +4.1140149e+02 </wgt>
<wgt id='32'> +3.6611307e+02 </wgt>
<wgt id='33'> +4.6182229e+02 </wgt>
<wgt id='34'> +2.9391782e+02 </wgt>
<wgt id='35'> +4.0573034e+02 </wgt>
<wgt id='36'> +3.8011675e+02 </wgt>
<wgt id='37'> +3.3555315e+02 </wgt>
<wgt id='38'> +4.3004619e+02 </wgt>
<wgt id='39'> +2.6948050e+02 </wgt>
<wgt id='40'> +3.7144065e+02 </wgt>
<wgt id='41'> +3.4819782e+02 </wgt>
<wgt id='42'> +3.0770238e+02 </wgt>
<wgt id='43'> +3.9414968e+02 </wgt>
<wgt id='44'> +2.4766331e+02 </wgt>
<wgt id='45'> +4.8159400e+02 </wgt>
<wgt id='46'> +4.9023062e+02 </wgt>
<wgt id='47'> +5.0386815e+02 </wgt>
<wgt id='48'> +4.8837439e+02 </wgt>
<wgt id='49'> +4.7983301e+02 </wgt>
<wgt id='50'> +5.8857113e+02 </wgt>
<wgt id='51'> +4.7207121e+02 </wgt>
<wgt id='52'> +4.8118651e+02 </wgt>
<wgt id='53'> +4.8043399e+02 </wgt>
<wgt id='54'> +4.8468103e+02 </wgt>
<wgt id='55'> +4.2813668e+02 </wgt>
<wgt id='56'> +4.3755519e+02 </wgt>
<wgt id='57'> +4.6877214e+02 </wgt>
<wgt id='58'> +4.7686660e+02 </wgt>
<wgt id='59'> +4.8424879e+02 </wgt>
<wgt id='60'> +4.7022357e+02 </wgt>
<wgt id='61'> +4.5000800e+02 </wgt>
<wgt id='62'> +4.7668777e+02 </wgt>
<wgt id='63'> +4.8195813e+02 </wgt>
<wgt id='64'> +4.6922917e+02 </wgt>
<wgt id='65'> +5.6858555e+02 </wgt>
<wgt id='66'> +4.7139450e+02 </wgt>
<wgt id='67'> +4.8581755e+02 </wgt>
<wgt id='68'> +5.2744096e+02 </wgt>
<wgt id='69'> +4.7986607e+02 </wgt>
<wgt id='70'> +4.7152755e+02 </wgt>
<wgt id='71'> +4.9040021e+02 </wgt>
<wgt id='72'> +4.5299783e+02 </wgt>
<wgt id='73'> +4.7084801e+02 </wgt>
<wgt id='74'> +5.0598407e+02 </wgt>
<wgt id='75'> +4.9480796e+02 </wgt>
<wgt id='76'> +4.6515893e+02 </wgt>
<wgt id='77'> +4.6891431e+02 </wgt>
<wgt id='78'> +4.7181457e+02 </wgt>
<wgt id='79'> +4.6685102e+02 </wgt>
<wgt id='80'> +4.7362591e+02 </wgt>
<wgt id='81'> +4.6894504e+02 </wgt>
<wgt id='82'> +4.8918689e+02 </wgt>
<wgt id='83'> +4.9608590e+02 </wgt>
<wgt id='84'> +5.3464061e+02 </wgt>
<wgt id='85'> +5.0726909e+02 </wgt>
<wgt id='86'> +4.8371119e+02 </wgt>
<wgt id='87'> +4.8486274e+02 </wgt>
<wgt id='88'> +4.9229785e+02 </wgt>
<wgt id='89'> +4.9754489e+02 </wgt>
<wgt id='90'> +4.9061244e+02 </wgt>
<wgt id='91'> +5.1019552e+02 </wgt>
<wgt id='92'> +4.2681569e+02 </wgt>
<wgt id='93'> +4.7798932e+02 </wgt>
<wgt id='94'> +4.7255585e+02 </wgt>
<wgt id='95'> +4.5820997e+02 </wgt>
<wgt id='96'> +5.3264572e+02 </wgt>
<wgt id='97'> +4.8383885e+02 </wgt>
<wgt id='98'> +4.6081928e+02 </wgt>
<wgt id='99'> +4.6342888e+02 </wgt>
<wgt id='100'> +4.6268821e+02 </wgt>
<wgt id='101'> +5.2491583e+02 </wgt>
<wgt id='102'> +4.8266957e+02 </wgt>
<wgt id='103'> +5.3163294e+02 </wgt>
<wgt id='104'> +4.8528393e+02 </wgt>
<wgt id='105'> +4.9527936e+02 </wgt>
<wgt id='106'> +4.2814872e+02 </wgt>
<wgt id='107'> +4.6096701e+02 </wgt>
<wgt id='108'> +4.1641492e+02 </wgt>
<wgt id='109'> +4.4331600e+02 </wgt>
<wgt id='110'> +4.7963455e+02 </wgt>
<wgt id='111'> +4.6365204e+02 </wgt>
<wgt id='112'> +4.5075950e+02 </wgt>
<wgt id='113'> +4.3438676e+02 </wgt>
<wgt id='114'> +4.6625170e+02 </wgt>
<wgt id='115'> +4.6668820e+02 </wgt>
<wgt id='116'> +4.9430084e+02 </wgt>
<wgt id='117'> +4.8254152e+02 </wgt>
<wgt id='118'> +5.0583723e+02 </wgt>
<wgt id='119'> +4.5834830e+02 </wgt>
<wgt id='120'> +4.6999149e+02 </wgt>
<wgt id='121'> +4.6365924e+02 </wgt>
<wgt id='122'> +4.7355645e+02 </wgt>
<wgt id='123'> +4.9094026e+02 </wgt>
<wgt id='124'> +5.3056983e+02 </wgt>
<wgt id='125'> +5.3037042e+02 </wgt>
<wgt id='126'> +5.0567602e+02 </wgt>
<wgt id='127'> +5.0070805e+02 </wgt>
<wgt id='128'> +4.3788669e+02 </wgt>
<wgt id='129'> +5.5185947e+02 </wgt>
<wgt id='130'> +4.8739665e+02 </wgt>
<wgt id='131'> +5.1582429e+02 </wgt>
<wgt id='132'> +4.8656008e+02 </wgt>
<wgt id='133'> +4.8792915e+02 </wgt>
<wgt id='134'> +4.5446236e+02 </wgt>
<wgt id='135'> +4.9424205e+02 </wgt>
<wgt id='136'> +4.6960206e+02 </wgt>
<wgt id='137'> +4.5630200e+02 </wgt>
<wgt id='138'> +4.4721577e+02 </wgt>
<wgt id='139'> +4.9625787e+02 </wgt>
<wgt id='140'> +5.0707726e+02 </wgt>
<wgt id='141'> +4.8391256e+02 </wgt>
<wgt id='142'> +4.7235828e+02 </wgt>
<wgt id='143'> +4.8264110e+02 </wgt>
<wgt id='144'> +4.7453853e+02 </wgt>
<wgt id='145'> +4.8289335e+02 </wgt>
</rwgt>
</event>
<event>
 8      1 +4.8159400e+02 3.61007700e+02 7.54677100e-03 1.05826500e-01
       21 -1    0    0  501  502 +0.0000000000e+00 +0.0000000000e+00 +1.4270080994e+02 1.4270080994e+02 0.0000000000e+00 0.0000e+00 -1.0000e+00
       21 -1    0    0  502  503 -0.0000000000e+00 -0.0000000000e+00 -9.6841552067e+02 9.6841552067e+02 0.0000000000e+00 0.0000e+00 1.0000e+00
       -6  2    1    2    0  503 +2.3877996771e+02 -2.0624133379e+02 -5.4740750081e+02 6.5528584934e+02 1.7376193960e+02 0.0000e+00 0.0000e+00
        6  2    1    2  501    0 -2.3877996771e+02 +2.0624133379e+02 -2.7830720991e+02 4.5583048127e+02 1.7542851485e+02 0.0000e+00 0.0000e+00
        5  1    4    4  501    0 -1.2247707865e+01 +3.7018757441e+01 +1.3585665087e+01 4.1557851801e+01 4.7000000000e+00 0.0000e+00 -1.0000e+00
       24  1    4    4    0    0 -2.2653225985e+02 +1.6922257635e+02 -2.9189287500e+02 4.1427262947e+02 8.0419002446e+01 0.0000e+00 1.0000e+00
       -5  1    3    3    0  503 +1.6029314044e+02 -1.7742959343e+02 -4.1727509683e+02 4.8095295812e+02 4.7000000000e+00 0.0000e+00 1.0000e+00
      -24  1    3    3    0    0 +7.8486827275e+01 -2.8811740364e+01 -1.3013240399e+02 1.7433289122e+02 8.0419002446e+01 0.0000e+00 -1.0000e+00
<mgrwt>
<rscale>  2 0.36080575E+03</rscale>
<asrwt>0</asrwt>
<pdfrwt beam="1">  1       21 0.21953971E-01 0.36100765E+03</pdfrwt>
<pdfrwt beam="2">  1       21 0.14898700E+00 0.36100765E+03</pdfrwt>
<totfact> 0.53246481E+03</totfact>
</mgrwt>
<rwgt>
<wgt id='1'> +6.4135849e+02 </wgt>
<wgt id='2'> +4.9896318e+02 </wgt>
<wgt id='3'> +4.9081860e+02 </wgt>
<wgt id='4'> +6.5447077e+02 </wgt>
<wgt id='5'> +4.7592535e+02 </wgt>
<wgt id='6'> +5.7314647e+02 </wgt>
<wgt id='7'> +4.4715463e+02 </wgt>
<wgt id='8'> +4.3996085e+02 </wgt>
<wgt id='9'> +5.8504225e+02 </wgt>
<wgt id='10'> +4.2680225e+02 </wgt>
<wgt id='11'> +5.1390077e+02 </wgt>
<wgt id='12'> +4.0238185e+02 </wgt>
<wgt id='13'> +3.9600620e+02 </wgt>
<wgt id='14'> +5.2442121e+02 </wgt>
<wgt id='15'> +3.8434189e+02 </wgt>
<wgt id='16'> +5.3891006e+02 </wgt>
<wgt id='17'> +4.2464608e+02 </wgt>
<wgt id='18'> +4.1803564e+02 </wgt>
<wgt id='19'> +5.4906535e+02 </wgt>
<wgt id='20'> +4.0592454e+02 </wgt>
<wgt id='21'> +3.8055405e+02 </wgt>
<wgt id='22'> +3.7471953e+02 </wgt>
<wgt id='23'> +4.9081860e+02 </wgt>
<wgt id='24'> +3.6402664e+02 </wgt>
<wgt id='25'> +4.3181201e+02 </wgt>
<wgt id='26'> +3.4244987e+02 </wgt>
<wgt id='27'> +3.3728287e+02 </wgt>
<wgt id='28'> +4.3996085e+02 </wgt>
<wgt id='29'> +3.2781151e+02 </wgt>
<wgt id='30'> +4.5939503e+02 </wgt>
<wgt id='31'> +3.6577567e+02 </wgt>
<wgt id='32'> +3.6031710e+02 </wgt>
<wgt id='33'> +4.6764505e+02 </wgt>
<wgt id='34'> +3.5030572e+02 </wgt>
<wgt id='35'> +4.1053583e+02 </wgt>
<wgt id='36'> +3.2779630e+02 </wgt>
<wgt id='37'> +3.2298168e+02 </wgt>
<wgt id='38'> +4.1803564e+02 </wgt>
<wgt id='39'> +3.1414857e+02 </wgt>
<wgt id='40'> +3.6809907e+02 </wgt>
<wgt id='41'> +2.9497466e+02 </wgt>
<wgt id='42'> +2.9071393e+02 </wgt>
<wgt id='43'> +3.7471953e+02 </wgt>
<wgt id='44'> +2.8289555e+02 </wgt>
<wgt id='45'> +4.8159400e+02 </wgt>
<wgt id='46'> +4.9838522e+02 </wgt>
<wgt id='47'> +5.0135679e+02 </wgt>
<wgt id='48'> +4.8595993e+02 </wgt>
<wgt id='49'> +4.5791600e+02 </wgt>
<wgt id='50'> +5.8838525e+02 </wgt>
<wgt id='51'> +4.6108639e+02 </wgt>
<wgt id='52'> +4.6651735e+02 </wgt>
<wgt id='53'> +4.7708507e+02 </wgt>
<wgt id='54'> +5.0158804e+02 </wgt>
<wgt id='55'> +4.9184880e+02 </wgt>
<wgt id='56'> +4.4358263e+02 </wgt>
<wgt id='57'> +4.9724558e+02 </wgt>
<wgt id='58'> +4.4782743e+02 </wgt>
<wgt id='59'> +5.1518894e+02 </wgt>
<wgt id='60'> +4.8153887e+02 </wgt>
<wgt id='61'> +4.2406965e+02 </wgt>
<wgt id='62'> +4.5921018e+02 </wgt>
<wgt id='63'> +4.9518588e+02 </wgt>
<wgt id='64'> +4.7368379e+02 </wgt>
<wgt id='65'> +4.9531593e+02 </wgt>
<wgt id='66'> +4.8132817e+02 </wgt>
<wgt id='67'> +4.8400583e+02 </wgt>
<wgt id='68'> +5.6147068e+02 </wgt>
<wgt id='69'> +5.0790822e+02 </wgt>
<wgt id='70'> +4.9327172e+02 </wgt>
<wgt id='71'> +4.6844807e+02 </wgt>
<wgt id='72'> +4.4358053e+02 </wgt>
<wgt id='73'> +4.4648709e+02 </wgt>
<wgt id='74'> +5.3447762e+02 </wgt>
<wgt id='75'> +5.0812518e+02 </wgt>
<wgt id='76'> +4.8396068e+02 </wgt>
<wgt id='77'> +4.6606401e+02 </wgt>
<wgt id='78'> +4.3387531e+02 </wgt>
<wgt id='79'> +4.9572445e+02 </wgt>
<wgt id='80'> +4.4660866e+02 </wgt>
<wgt id='81'> +4.8191975e+02 </wgt>
<wgt id='82'> +4.6739737e+02 </wgt>
<wgt id='83'> +4.8516134e+02 </wgt>
<wgt id='84'> +5.0002784e+02 </wgt>
<wgt id='85'> +4.6384943e+02 </wgt>
<wgt id='86'> +4.9723509e+02 </wgt>
<wgt id='87'> +4.8163121e+02 </wgt>
<wgt id='88'> +4.8007442e+02 </wgt>
<wgt id='89'> +4.5197153e+02 </wgt>
<wgt id='90'> +4.7210142e+02 </wgt>
<wgt id='91'> +4.5736354e+02 </wgt>
<wgt id='92'> +4.3482524e+02 </wgt>
<wgt id='93'> +4.8464426e+02 </wgt>
<wgt id='94'> +4.5062765e+02 </wgt>
<wgt id='95'> +4.8905353e+02 </wgt>
<wgt id='96'> +5.1662123e+02 </wgt>
<wgt id='97'> +4.5468403e+02 </wgt>
<wgt id='98'> +4.9413779e+02 </wgt>
<wgt id='99'> +4.2778697e+02 </wgt>
<wgt id='100'> +4.0084023e+02 </wgt>
<wgt id='101'> +5.5686242e+02 </wgt>
<wgt id='102'> +5.2695552e+02 </wgt>
<wgt id='103'> +4.9370497e+02 </wgt>
<wgt id='104'> +5.0512924e+02 </wgt>
<wgt id='105'> +4.9199742e+02 </wgt>
<wgt id='106'> +4.4421453e+02 </wgt>
<wgt id='107'> +4.5279316e+02 </wgt>
<wgt id='108'> +4.3008545e+02 </wgt>
<wgt id='109'> +4.6025013e+02 </wgt>
<wgt id='110'> +4.5761378e+02 </wgt>
<wgt id='111'> +4.6672870e+02 </wgt>
<wgt id='112'> +4.7526512e+02 </wgt>
<wgt id='113'> +4.6885419e+02 </wgt>
<wgt id='114'> +4.7938853e+02 </wgt>
<wgt id='115'> +4.4634995e+02 </wgt>
<wgt id='116'> +5.2138950e+02 </wgt>
<wgt id='117'> +4.7217052e+02 </wgt>
<wgt id='118'> +5.0784298e+02 </wgt>
<wgt id='119'> +4.9406208e+02 </wgt>
<wgt id='120'> +4.7722636e+02 </wgt>
<wgt id='121'> +4.7177751e+02 </wgt>
<wgt id='122'> +4.7299032e+02 </wgt>
<wgt id='123'> +4.7647825e+02 </wgt>
<wgt id='124'> +5.4760270e+02 </wgt>
<wgt id='125'> +5.7734982e+02 </wgt>
<wgt id='126'> +4.8748290e+02 </wgt>
<wgt id='127'> +4.8010935e+02 </wgt>
<wgt id='128'> +4.4795060e+02 </wgt>
<wgt id='129'> +5.1901374e+02 </wgt>
<wgt id='130'> +4.7253300e+02 </wgt>
<wgt id='131'> +4.7244259e+02 </wgt>
<wgt id='132'> +5.1957761e+02 </wgt>
<wgt id='133'> +5.1485030e+02 </wgt>
<wgt id='134'> +4.8643912e+02 </wgt>
<wgt id='135'> +4.7391585e+02 </wgt>
<wgt id='136'> +5.3480416e+02 </wgt>
<wgt id='137'> +4.8413763e+02 </wgt>
<wgt id='138'> +4.8084325e+02 </wgt>
<wgt id='139'> +4.9776279e+02 </wgt>
<wgt id='140'> +4.7986451e+02 </wgt>
<wgt id='141'> +5.1899529e+02 </wgt>
<wgt id='142'> +3.9369942e+02 </wgt>
<wgt id='143'> +4.9384302e+02 </wgt>
<wgt id='144'> +4.5000821e+02 </wgt>
<wgt id='145'> +4.6100525e+02 </wgt>
</rwgt>
</event>
<event>
 8      1 +4.8159400e+02 2.03451000e+02 7.54677100e-03 1.14686300e-01
       21 -1    0    0  501  502 +0.0000000000e+00 +0.0000000000e+00 +5.9178766823e+01 5.9178766823e+01 0.0000000000e+00 0.0000e+00 -1.0000e+00
       21 -1    0    0  502  503 -0.0000000000e+00 -0.0000000000e+00 -7.0217864232e+02 7.0217864232e+02 0.0000000000e+00 0.0000e+00 -1.0000e+00
       -6  2    1    2    0  503 +1.0431813482e+02 -2.5386465819e+01 -2.9753714394e+02 3.6044510092e+02 1.7281658732e+02 0.0000e+00 0.0000e+00
        6  2    1    2  501    0 -1.0431813482e+02 +2.5386465819e+01 -3.4546273156e+02 4.0091230823e+02 1.7279882550e+02 0.0000e+00 0.0000e+00
        5  1    4    4  501    0 +4.4261934534e+00 +5.7216651016e+01 -1.5347531668e+02 1.6392101504e+02 4.7000000000e+00 0.0000e+00 -1.0000e+00
       24  1    4    4    0    0 -1.0874432827e+02 -3.1830185197e+01 -1.9198741487e+02 2.3699129318e+02 8.0419002446e+01 0.0000e+00 -1.0000e+00
       -5  1    3    3    0  503 +2.7843793667e+01 -2.8019157529e+01 +3.1670200392e+00 3.9905764626e+01 4.7000000000e+00 0.0000e+00 1.0000e+00
      -24  1    3    3    0    0 +7.6474341150e+01 +2.6326917105e+00 -3.0070416398e+02 3.2053933629e+02 8.0419002446e+01 0.0000e+00 0.0000e+00
<mgrwt>
<rscale>  2 0.20344725E+03</rscale>
<asrwt>0</asrwt>
<pdfrwt beam="1">  1       21 0.91044256E-02 0.20345102E+03</pdfrwt>
<pdfrwt beam="2">  1       21 0.10802748E+00 0.20345102E+03</pdfrwt>
<totfact> 0.64967981E+04</totfact>
</mgrwt>
<rwgt>
<wgt id='1'> +6.2134245e+02 </wgt>
<wgt id='2'> +5.3982861e+02 </wgt>
<wgt id='3'> +5.0975479e+02 </wgt>
<wgt id='4'> +6.6003667e+02 </wgt>
<wgt id='5'> +4.8125703e+02 </wgt>
<wgt id='6'> +5.8929782e+02 </wgt>
<wgt id='7'> +5.0603400e+02 </wgt>
<wgt id='8'> +4.7623302e+02 </wgt>
<wgt id='9'> +6.2857847e+02 </wgt>
<wgt id='10'> +4.4898962e+02 </wgt>
<wgt id='11'> +5.4978853e+02 </wgt>
<wgt id='12'> +4.7204987e+02 </wgt>
<wgt id='13'> +4.4424127e+02 </wgt>
<wgt id='14'> +5.8724279e+02 </wgt>
<wgt id='15'> +4.1884063e+02 </wgt>
<wgt id='16'> +5.0778195e+02 </wgt>
<wgt id='17'> +4.5003962e+02 </wgt>
<wgt id='18'> +4.2778995e+02 </wgt>
<wgt id='19'> +5.3526627e+02 </wgt>
<wgt id='20'> +4.0573305e+02 </wgt>
<wgt id='21'> +4.2186603e+02 </wgt>
<wgt id='22'> +3.9965823e+02 </wgt>
<wgt id='23'> +5.0975479e+02 </wgt>
<wgt id='24'> +3.7852938e+02 </wgt>
<wgt id='25'> +4.4930568e+02 </wgt>
<wgt id='26'> +3.9353443e+02 </wgt>
<wgt id='27'> +3.7281052e+02 </wgt>
<wgt id='28'> +4.7623302e+02 </wgt>
<wgt id='29'> +3.5311169e+02 </wgt>
<wgt id='30'> +4.2807716e+02 </wgt>
<wgt id='31'> +3.8222815e+02 </wgt>
<wgt id='32'> +3.6441441e+02 </wgt>
<wgt id='33'> +4.4919937e+02 </wgt>
<wgt id='34'> +3.4663504e+02 </wgt>
<wgt id='35'> +4.0599984e+02 </wgt>
<wgt id='36'> +3.5829973e+02 </wgt>
<wgt id='37'> +3.4045031e+02 </wgt>
<wgt id='38'> +4.2778995e+02 </wgt>
<wgt id='39'> +3.2339379e+02 </wgt>
<wgt id='40'> +3.7877971e+02 </wgt>
<wgt id='41'> +3.3423710e+02 </wgt>
<wgt id='42'> +3.1757999e+02 </wgt>
<wgt id='43'> +3.9965823e+02 </wgt>
<wgt id='44'> +3.0167837e+02 </wgt>
<wgt id='45'> +4.8159400e+02 </wgt>
<wgt id='46'> +4.9133988e+02 </wgt>
<wgt id='47'> +4.9376821e+02 </wgt>
<wgt id='48'> +4.8325097e+02 </wgt>
<wgt id='49'> +4.7135898e+02 </wgt>
<wgt id='50'> +5.6433657e+02 </wgt>
<wgt id='51'> +4.6839831e+02 </wgt>
<wgt id='52'> +4.7893371e+02 </wgt>
<wgt id='53'> +4.7548020e+02 </wgt>
<wgt id='54'> +4.9154394e+02 </wgt>
<wgt id='55'> +4.6687572e+02 </wgt>
<wgt id='56'> +4.4422554e+02 </wgt>
<wgt id='57'> +4.8766777e+02 </wgt>
<wgt id='58'> +4.6990347e+02 </wgt>
<wgt id='59'> +5.0231226e+02 </wgt>
<wgt id='60'> +4.8261264e+02 </wgt>
<wgt id='61'> +4.2452351e+02 </wgt>
<wgt id='62'> +4.6991426e+02 </wgt>
<wgt id='63'> +4.8596233e+02 </wgt>
<wgt id='64'> +4.7500433e+02 </wgt>
<wgt id='65'> +5.2037012e+02 </wgt>
<wgt id='66'> +4.7457481e+02 </wgt>
<wgt id='67'> +4.8401153e+02 </wgt>
<wgt id='68'> +5.3192170e+02 </wgt>
<wgt id='69'> +4.8172479e+02 </wgt>
<wgt id='70'> +4.7924662e+02 </wgt>
<wgt id='71'> +4.8264512e+02 </wgt>
<wgt id='72'> +4.6568785e+02 </wgt>
<wgt id='73'> +4.6449156e+02 </wgt>
<wgt id='74'> +5.1073454e+02 </wgt>
<wgt id='75'> +4.9325499e+02 </wgt>
<wgt id='76'> +4.7889064e+02 </wgt>
<wgt id='77'> +4.7169181e+02 </wgt>
<wgt id='78'> +4.5703587e+02 </wgt>
<wgt id='79'> +4.8005500e+02 </wgt>
<wgt id='80'> +4.6556207e+02 </wgt>
<wgt id='81'> +4.7559964e+02 </wgt>
<wgt id='82'> +4.7233422e+02 </wgt>
<wgt id='83'> +4.8371688e+02 </wgt>
<wgt id='84'> +5.0863022e+02 </wgt>
<wgt id='85'> +4.8365422e+02 </wgt>
<wgt id='86'> +4.8472718e+02 </wgt>
<wgt id='87'> +4.8395677e+02 </wgt>
<wgt id='88'> +4.8047230e+02 </wgt>
<wgt id='89'> +4.8041171e+02 </wgt>
<wgt id='90'> +4.8751828e+02 </wgt>
<wgt id='91'> +4.8503828e+02 </wgt>
<wgt id='92'> +4.4584968e+02 </wgt>
<wgt id='93'> +4.7976285e+02 </wgt>
<wgt id='94'> +4.6658071e+02 </wgt>
<wgt id='95'> +4.8128555e+02 </wgt>
<wgt id='96'> +5.0965726e+02 </wgt>
<wgt id='97'> +4.7262438e+02 </wgt>
<wgt id='98'> +4.7588593e+02 </wgt>
<wgt id='99'> +4.5316559e+02 </wgt>
<wgt id='100'> +4.4370848e+02 </wgt>
<wgt id='101'> +5.3126724e+02 </wgt>
<wgt id='102'> +4.9849231e+02 </wgt>
<wgt id='103'> +5.1008570e+02 </wgt>
<wgt id='104'> +4.8717727e+02 </wgt>
<wgt id='105'> +4.9728412e+02 </wgt>
<wgt id='106'> +4.4627389e+02 </wgt>
<wgt id='107'> +4.6158696e+02 </wgt>
<wgt id='108'> +4.3202866e+02 </wgt>
<wgt id='109'> +4.5929077e+02 </wgt>
<wgt id='110'> +4.7526679e+02 </wgt>
<wgt id='111'> +4.7009001e+02 </wgt>
<wgt id='112'> +4.6293398e+02 </wgt>
<wgt id='113'> +4.5474543e+02 </wgt>
<wgt id='114'> +4.7662112e+02 </wgt>
<wgt id='115'> +4.5541956e+02 </wgt>
<wgt id='116'> +4.9883799e+02 </wgt>
<wgt id='117'> +4.7505828e+02 </wgt>
<wgt id='118'> +5.0221260e+02 </wgt>
<wgt id='119'> +4.7766561e+02 </wgt>
<wgt id='120'> +4.7214156e+02 </wgt>
<wgt id='121'> +4.7590709e+02 </wgt>
<wgt id='122'> +4.7659414e+02 </wgt>
<wgt id='123'> +4.8110722e+02 </wgt>
<wgt id='124'> +5.3033008e+02 </wgt>
<wgt id='125'> +5.3977267e+02 </wgt>
<wgt id='126'> +4.9187437e+02 </wgt>
<wgt id='127'> +4.8958304e+02 </wgt>
<wgt id='128'> +4.4146610e+02 </wgt>
<wgt id='129'> +5.3128935e+02 </wgt>
<wgt id='130'> +4.7384944e+02 </wgt>
<wgt id='131'> +4.9458090e+02 </wgt>
<wgt id='132'> +5.0860489e+02 </wgt>
<wgt id='133'> +4.9684733e+02 </wgt>
<wgt id='134'> +4.7381033e+02 </wgt>
<wgt id='135'> +4.8489642e+02 </wgt>
<wgt id='136'> +5.0563595e+02 </wgt>
<wgt id='137'> +4.6502099e+02 </wgt>
<wgt id='138'> +4.5538477e+02 </wgt>
<wgt id='139'> +4.9547000e+02 </wgt>
<wgt id='140'> +4.9187582e+02 </wgt>
<wgt id='141'> +4.9359361e+02 </wgt>
<wgt id='142'> +4.4630271e+02 </wgt>
<wgt id='143'> +4.9228513e+02 </wgt>
<wgt id='144'> +4.7003097e+02 </wgt>
<wgt id='145'> +4.7400799e+02 </wgt>
</rwgt>
</event>
<event>
 8      1 +4.8159400e+02 2.74853100e+02 7.54677100e-03 1.09883500e-01
       21 -1    0    0  503  502 +0.0000000000e+00 +0.0000000000e+00 +9.1563633352e+01 9.1563633352e+01 0.0000000000e+00 0.0000e+00 -1.0000e+00
       21 -1    0    0  501  503 -0.0000000000e+00 -0.0000000000e+00 -8.9621951742e+02 8.9621951742e+02 0.0000000000e+00 0.0000e+00 1.0000e+00
        6  2    1    2  501    0 +1.9894628697e+02 +7.7808399264e+01 -5.4622323838e+02 6.1051447626e+02 1.6951202757e+02 0.0000e+00 0.0000e+00
       -6  2    1    2    0  502 -1.9894628697e+02 -7.7808399264e+01 -2.5843264569e+02 3.7726867451e+02 1.7294637408e+02 0.0000e+00 0.0000e+00
        5  1    3    3  501    0 +1.1064639649e+02 +1.3941938283e+01 -1.2275458729e+02 1.6591498244e+02 4.7000000000e+00 0.0000e+00 -1.0000e+00
       24  1    3    3    0    0 +8.8299890485e+01 +6.3866460981e+01 -4.2346865109e+02 4.4459949382e+02 8.0419002446e+01 0.0000e+00 0.0000e+00
       -5  1    4    4    0  502 -9.8721706703e+01 -4.3355395843e+01 -2.8504104212e+01 1.1162544369e+02 4.7000000000e+00 0.0000e+00 1.0000e+00
      -24  1    4    4    0    0 -1.0022458027e+02 -3.4453003421e+01 -2.2992854148e+02 2.6564323081e+02 8.0419002446e+01 0.0000e+00 1.0000e+00
<mgrwt>
<rscale>  2 0.27431452E+03</rscale>
<asrwt>0</asrwt>
<pdfrwt beam="1">  1       21 0.14086713E-01 0.27485309E+03</pdfrwt>
<pdfrwt beam="2">  1       21 0.13787993E+00 0.27485309E+03</pdfrwt>
<totfact> 0.15588095E+04</totfact>
</mgrwt>
<rwgt>
<wgt id='1'> +6.3416328e+02 </wgt>
<wgt id='2'> +5.2413528e+02 </wgt>
<wgt id='3'> +5.0402444e+02 </wgt>
<wgt id='4'> +6.6568025e+02 </wgt>
<wgt id='5'> +4.7377415e+02 </wgt>
<wgt id='6'> +5.8000057e+02 </wgt>
<wgt id='7'> +4.7689385e+02 </wgt>
<wgt id='8'> +4.5875457e+02 </wgt>
<wgt id='9'> +6.1066622e+02 </wgt>
<wgt id='10'> +4.3142783e+02 </wgt>
<wgt id='11'> +5.2809197e+02 </wgt>
<wgt id='12'> +4.3490449e+02 </wgt>
<wgt id='13'> +4.1851634e+02 </wgt>
<wgt id='14'> +5.5581812e+02 </wgt>
<wgt id='15'> +3.9382522e+02 </wgt>
<wgt id='16'> +5.2656712e+02 </wgt>
<wgt id='17'> +4.4256955e+02 </wgt>
<wgt id='18'> +4.2643342e+02 </wgt>
<wgt id='19'> +5.4943127e+02 </wgt>
<wgt id='20'> +4.0211399e+02 </wgt>
<wgt id='21'> +4.0267981e+02 </wgt>
<wgt id='22'> +3.8813252e+02 </wgt>
<wgt id='23'> +5.0402444e+02 </wgt>
<wgt id='24'> +3.6617271e+02 </wgt>
<wgt id='25'> +4.3849254e+02 </wgt>
<wgt id='26'> +3.6722482e+02 </wgt>
<wgt id='27'> +3.5408869e+02 </wgt>
<wgt id='28'> +4.5875457e+02 </wgt>
<wgt id='29'> +3.3425764e+02 </wgt>
<wgt id='30'> +4.4654181e+02 </wgt>
<wgt id='31'> +3.7863986e+02 </wgt>
<wgt id='32'> +3.6546999e+02 </wgt>
<wgt id='33'> +4.6485018e+02 </wgt>
<wgt id='34'> +3.4556086e+02 </wgt>
<wgt id='35'> +4.0840350e+02 </wgt>
<wgt id='36'> +3.4451224e+02 </wgt>
<wgt id='37'> +3.3264464e+02 </wgt>
<wgt id='38'> +4.2643342e+02 </wgt>
<wgt id='39'> +3.1467435e+02 </wgt>
<wgt id='40'> +3.7185240e+02 </wgt>
<wgt id='41'> +3.1417877e+02 </wgt>
<wgt id='42'> +3.0346775e+02 </wgt>
<wgt id='43'> +3.8813252e+02 </wgt>
<wgt id='44'> +2.8724780e+02 </wgt>
<wgt id='45'> +4.8159400e+02 </wgt>
<wgt id='46'> +4.9557676e+02 </wgt>
<wgt id='47'> +4.9704592e+02 </wgt>
<wgt id='48'> +4.8419812e+02 </wgt>
<wgt id='49'> +4.6186169e+02 </wgt>
<wgt id='50'> +5.7734416e+02 </wgt>
<wgt id='51'> +4.6309962e+02 </wgt>
<wgt id='52'> +4.7118314e+02 </wgt>
<wgt id='53'> +4.7621782e+02 </wgt>
<wgt id='54'> +4.9889986e+02 </wgt>
<wgt id='55'> +4.8618205e+02 </wgt>
<wgt id='56'> +4.4432787e+02 </wgt>
<wgt id='57'> +4.9592195e+02 </wgt>
<wgt id='58'> +4.5543848e+02 </wgt>
<wgt id='59'> +5.1200650e+02 </wgt>
<wgt id='60'> +4.8236142e+02 </wgt>
<wgt id='61'> +4.2225776e+02 </wgt>
<wgt id='62'> +4.6236657e+02 </wgt>
<wgt id='63'> +4.9219383e+02 </wgt>
<wgt id='64'> +4.7530175e+02 </wgt>
<wgt id='65'> +5.0192473e+02 </wgt>
<wgt id='66'> +4.7867691e+02 </wgt>
<wgt id='67'> +4.8382512e+02 </wgt>
<wgt id='68'> +5.5025546e+02 </wgt>
<wgt id='69'> +4.9735271e+02 </wgt>
<wgt id='70'> +4.8803467e+02 </wgt>
<wgt id='71'> +4.7322103e+02 </wgt>
<wgt id='72'> +4.5394962e+02 </wgt>
<wgt id='73'> +4.5233269e+02 </wgt>
<wgt id='74'> +5.2536879e+02 </wgt>
<wgt id='75'> +5.0195310e+02 </wgt>
<wgt id='76'> +4.8377531e+02 </wgt>
<wgt id='77'> +4.6815491e+02 </wgt>
<wgt id='78'> +4.4127039e+02 </wgt>
<wgt id='79'> +4.9036558e+02 </wgt>
<wgt id='80'> +4.5292404e+02 </wgt>
<wgt id='81'> +4.8002519e+02 </wgt>
<wgt id='82'> +4.6703634e+02 </wgt>
<wgt id='83'> +4.8323054e+02 </wgt>
<wgt id='84'> +5.0137338e+02 </wgt>
<wgt id='85'> +4.6915261e+02 </wgt>
<wgt id='86'> +4.9210313e+02 </wgt>
<wgt id='87'> +4.8242722e+02 </wgt>
<wgt id='88'> +4.7864382e+02 </wgt>
<wgt id='89'> +4.6117242e+02 </wgt>
<wgt id='90'> +4.7773516e+02 </wgt>
<wgt id='91'> +4.6559075e+02 </wgt>
<wgt id='92'> +4.4123579e+02 </wgt>
<wgt id='93'> +4.8244502e+02 </wgt>
<wgt id='94'> +4.5609080e+02 </wgt>
<wgt id='95'> +4.8918705e+02 </wgt>
<wgt id='96'> +5.1155406e+02 </wgt>
<wgt id='97'> +4.6060199e+02 </wgt>
<wgt id='98'> +4.8809284e+02 </wgt>
<wgt id='99'> +4.3592156e+02 </wgt>
<wgt id='100'> +4.1479960e+02 </wgt>
<wgt id='101'> +5.4739974e+02 </wgt>
<wgt id='102'> +5.1706379e+02 </wgt>
<wgt id='103'> +4.9813670e+02 </wgt>
<wgt id='104'> +4.9827342e+02 </wgt>
<wgt id='105'> +4.9488364e+02 </wgt>
<wgt id='106'> +4.4709103e+02 </wgt>
<wgt id='107'> +4.5626115e+02 </wgt>
<wgt id='108'> +4.3252853e+02 </wgt>
<wgt id='109'> +4.6183582e+02 </wgt>
<wgt id='110'> +4.6400092e+02 </wgt>
<wgt id='111'> +4.6909291e+02 </wgt>
<wgt id='112'> +4.7248952e+02 </wgt>
<wgt id='113'> +4.6516084e+02 </wgt>
<wgt id='114'> +4.8073246e+02 </wgt>
<wgt id='115'> +4.4924545e+02 </wgt>
<wgt id='116'> +5.1269660e+02 </wgt>
<wgt id='117'> +4.7274210e+02 </wgt>
<wgt id='118'> +5.0521619e+02 </wgt>
<wgt id='119'> +4.9014331e+02 </wgt>
<wgt id='120'> +4.7677279e+02 </wgt>
<wgt id='121'> +4.7515413e+02 </wgt>
<wgt id='122'> +4.7491950e+02 </wgt>
<wgt id='123'> +4.7745984e+02 </wgt>
<wgt id='124'> +5.4121151e+02 </wgt>
<wgt id='125'> +5.6371182e+02 </wgt>
<wgt id='126'> +4.8756998e+02 </wgt>
<wgt id='127'> +4.8260676e+02 </wgt>
<wgt id='128'> +4.4578310e+02 </wgt>
<wgt id='129'> +5.2247397e+02 </wgt>
<wgt id='130'> +4.7057979e+02 </wgt>
<wgt id='131'> +4.7895795e+02 </wgt>
<wgt id='132'> +5.1772501e+02 </wgt>
<wgt id='133'> +5.0863100e+02 </wgt>
<wgt id='134'> +4.8317131e+02 </wgt>
<wgt id='135'> +4.7714413e+02 </wgt>
<wgt id='136'> +5.2756562e+02 </wgt>
<wgt id='137'> +4.7683982e+02 </wgt>
<wgt id='138'> +4.7084367e+02 </wgt>
<wgt id='139'> +4.9659974e+02 </wgt>
<wgt id='140'> +4.8337452e+02 </wgt>
<wgt id='141'> +5.0995092e+02 </wgt>
<wgt id='142'> +4.1045397e+02 </wgt>
<wgt id='143'> +4.9402678e+02 </wgt>
<wgt id='144'> +4.5716017e+02 </wgt>
<wgt id='145'> +4.6483858e+02 </wgt>
</rwgt>
</event>
<event>
 8      1 +4.8159400e+02 1.99909800e+02 7.54677100e-03 1.14996700e-01
       21 -1    0    0  501  502 +0.0000000000e+00 +0.0000000000e+00 +5.3800605579e+02 5.3800605579e+02 0.0000000000e+00 0.0000e+00 -1.0000e+00
       21 -1    0    0  502  503 -0.0000000000e+00 -0.0000000000e+00 -2.8571123390e+02 2.8571123390e+02 0.0000000000e+00 0.0000e+00 -1.0000e+00
       -6  2    1    2    0  503 -9.1209773298e+01 -4.2179697258e+01 -2.2831420558e+02 3.0346549092e+02 1.7281660251e+02 0.0000e+00 0.0000e+00
        6  2    1    2  501    0 +9.1209773298e+01 +4.2179697258e+01 +4.8060902747e+02 5.2025179877e+02 1.7198414818e+02 0.0000e+00 0.0000e+00
        5  1    4    4  501    0 +5.1908194176e+01 +8.2874745455e+01 +1.9509957830e+02 2.1828563743e+02 4.7000000000e+00 0.0000e+00 -1.0000e+00
       24  1    4    4    0    0 +3.9301579121e+01 -4.0695048197e+01 +2.8550944918e+02 3.0196616134e+02 8.0419002446e+01 0.0000e+00 -1.0000e+00
       -5  1    3    3    0  503 -9.3832934769e+01 -3.3481647589e+01 -5.9201299552e+01 1.1598501731e+02 4.7000000000e+00 0.0000e+00 1.0000e+00
      -24  1    3    3    0    0 +2.6231614713e+00 -8.6980496694e+00 -1.6911290603e+02 1.8748047361e+02 8.0419002446e+01 0.0000e+00 -1.0000e+00
<mgrwt>
<rscale>  2 0.19972976E+03</rscale>
<asrwt>0</asrwt>
<pdfrwt beam="1">  1       21 0.82770162E-01 0.19990980E+03</pdfrwt>
<pdfrwt beam="2">  1       21 0.43955574E-01 0.19990980E+03</pdfrwt>
<totfact> 0.62961694E+03</totfact>
</mgrwt>
<rwgt>
<wgt id='1'> +6.4651810e+02 </wgt>
<wgt id='2'> +5.7070324e+02 </wgt>
<wgt id='3'> +4.9330866e+02 </wgt>
<wgt id='4'> +6.6341183e+02 </wgt>
<wgt id='5'> +3.6856463e+02 </wgt>
<wgt id='6'> +5.8988801e+02 </wgt>
<wgt id='7'> +5.1723658e+02 </wgt>
<wgt id='8'> +4.4475602e+02 </wgt>
<wgt id='9'> +6.0598170e+02 </wgt>
<wgt id='10'> +3.3346953e+02 </wgt>
<wgt id='11'> +5.3181946e+02 </wgt>
<wgt id='12'> +4.6704954e+02 </wgt>
<wgt id='13'> +4.0232259e+02 </wgt>
<wgt id='14'> +5.4633951e+02 </wgt>
<wgt id='15'> +3.0283199e+02 </wgt>
<wgt id='16'> +5.2782771e+02 </wgt>
<wgt id='17'> +4.7314977e+02 </wgt>
<wgt id='18'> +4.1505724e+02 </wgt>
<wgt id='19'> +5.4006053e+02 </wgt>
<wgt id='20'> +3.1465836e+02 </wgt>
<wgt id='21'> +4.2882246e+02 </wgt>
<wgt id='22'> +3.7420630e+02 </wgt>
<wgt id='23'> +4.9330866e+02 </wgt>
<wgt id='24'> +2.8469627e+02 </wgt>
<wgt id='25'> +4.3418591e+02 </wgt>
<wgt id='26'> +3.8721417e+02 </wgt>
<wgt id='27'> +3.3850390e+02 </wgt>
<wgt id='28'> +4.4475602e+02 </wgt>
<wgt id='29'> +2.5853978e+02 </wgt>
<wgt id='30'> +4.4479099e+02 </wgt>
<wgt id='31'> +4.0100714e+02 </wgt>
<wgt id='32'> +3.5409771e+02 </wgt>
<wgt id='33'> +4.5439306e+02 </wgt>
<wgt id='34'> +2.7176893e+02 </wgt>
<wgt id='35'> +4.0583066e+02 </wgt>
<wgt id='36'> +3.6343855e+02 </wgt>
<wgt id='37'> +3.1924656e+02 </wgt>
<wgt id='38'> +4.1505724e+02 </wgt>
<wgt id='39'> +2.4589082e+02 </wgt>
<wgt id='40'> +3.6588071e+02 </wgt>
<wgt id='41'> +3.2817441e+02 </wgt>
<wgt id='42'> +2.8878777e+02 </wgt>
<wgt id='43'> +3.7420630e+02 </wgt>
<wgt id='44'> +2.2329958e+02 </wgt>
<wgt id='45'> +4.8159400e+02 </wgt>
<wgt id='46'> +4.9713392e+02 </wgt>
<wgt id='47'> +5.0528973e+02 </wgt>
<wgt id='48'> +4.9127923e+02 </wgt>
<wgt id='49'> +4.7657344e+02 </wgt>
<wgt id='50'> +6.0417057e+02 </wgt>
<wgt id='51'> +4.7066642e+02 </wgt>
<wgt id='52'> +4.8222448e+02 </wgt>
<wgt id='53'> +4.7432882e+02 </wgt>
<wgt id='54'> +4.8714515e+02 </wgt>
<wgt id='55'> +4.3669404e+02 </wgt>
<wgt id='56'> +4.3065768e+02 </wgt>
<wgt id='57'> +4.7444902e+02 </wgt>
<wgt id='58'> +4.6861481e+02 </wgt>
<wgt id='59'> +4.9691479e+02 </wgt>
<wgt id='60'> +4.7914810e+02 </wgt>
<wgt id='61'> +4.2359510e+02 </wgt>
<wgt id='62'> +4.7568675e+02 </wgt>
<wgt id='63'> +4.8272348e+02 </wgt>
<wgt id='64'> +4.6510201e+02 </wgt>
<wgt id='65'> +5.5758980e+02 </wgt>
<wgt id='66'> +4.7298641e+02 </wgt>
<wgt id='67'> +4.8520834e+02 </wgt>
<wgt id='68'> +5.3824929e+02 </wgt>
<wgt id='69'> +4.8846459e+02 </wgt>
<wgt id='70'> +4.7166908e+02 </wgt>
<wgt id='71'> +4.8832867e+02 </wgt>
<wgt id='72'> +4.4563882e+02 </wgt>
<wgt id='73'> +4.6539315e+02 </wgt>
<wgt id='74'> +5.1514695e+02 </wgt>
<wgt id='75'> +4.9646240e+02 </wgt>
<wgt id='76'> +4.6740525e+02 </wgt>
<wgt id='77'> +4.7318632e+02 </wgt>
<wgt id='78'> +4.6021521e+02 </wgt>
<wgt id='79'> +4.7380493e+02 </wgt>
<wgt id='80'> +4.6815222e+02 </wgt>
<wgt id='81'> +4.6768345e+02 </wgt>
<wgt id='82'> +4.7955196e+02 </wgt>
<wgt id='83'> +4.9637307e+02 </wgt>
<wgt id='84'> +5.3253176e+02 </wgt>
<wgt id='85'> +5.0094547e+02 </wgt>
<wgt id='86'> +4.8791004e+02 </wgt>
<wgt id='87'> +4.8708157e+02 </wgt>
<wgt id='88'> +4.9085887e+02 </wgt>
<wgt id='89'> +4.9613661e+02 </wgt>
<wgt id='90'> +4.9276371e+02 </wgt>
<wgt id='91'> +5.0172025e+02 </wgt>
<wgt id='92'> +4.1981468e+02 </wgt>
<wgt id='93'> +4.8176285e+02 </wgt>
<wgt id='94'> +4.6595764e+02 </wgt>
<wgt id='95'> +4.6231447e+02 </wgt>
<wgt id='96'> +5.3540527e+02 </wgt>
<wgt id='97'> +4.7699584e+02 </wgt>
<wgt id='98'> +4.6592703e+02 </wgt>
<wgt id='99'> +4.5690829e+02 </wgt>
<wgt id='100'> +4.4581333e+02 </wgt>
<wgt id='101'> +5.4209470e+02 </wgt>
<wgt id='102'> +4.9890404e+02 </wgt>
<wgt id='103'> +5.3248073e+02 </wgt>
<wgt id='104'> +4.8950416e+02 </wgt>
<wgt id='105'> +4.9232678e+02 </wgt>
<wgt id='106'> +4.2202159e+02 </wgt>
<wgt id='107'> +4.5001913e+02 </wgt>
<wgt id='108'> +4.0905912e+02 </wgt>
<wgt id='109'> +4.4082899e+02 </wgt>
<wgt id='110'> +4.7602422e+02 </wgt>
<wgt id='111'> +4.6178117e+02 </wgt>
<wgt id='112'> +4.4702135e+02 </wgt>
<wgt id='113'> +4.3374071e+02 </wgt>
<wgt id='114'> +4.5928123e+02 </wgt>
<wgt id='115'> +4.5296347e+02 </wgt>
<wgt id='116'> +5.0592834e+02 </wgt>
<wgt id='117'> +4.7668984e+02 </wgt>
<wgt id='118'> +5.1445805e+02 </wgt>
<wgt id='119'> +4.6000609e+02 </wgt>
<wgt id='120'> +4.6465650e+02 </wgt>
<wgt id='121'> +4.6382676e+02 </wgt>
<wgt id='122'> +4.7348319e+02 </wgt>
<wgt id='123'> +4.9095895e+02 </wgt>
<wgt id='124'> +5.4398266e+02 </wgt>
<wgt id='125'> +5.4523885e+02 </wgt>
<wgt id='126'> +5.0616384e+02 </wgt>
<wgt id='127'> +5.0140462e+02 </wgt>
<wgt id='128'> +4.3164156e+02 </wgt>
<wgt id='129'> +5.5189979e+02 </wgt>
<wgt id='130'> +4.8460846e+02 </wgt>
<wgt id='131'> +5.0987277e+02 </wgt>
<wgt id='132'> +5.0086771e+02 </wgt>
<wgt id='133'> +4.9793834e+02 </wgt>
<wgt id='134'> +4.6068330e+02 </wgt>
<wgt id='135'> +4.9181340e+02 </wgt>
<wgt id='136'> +4.8611843e+02 </wgt>
<wgt id='137'> +4.6070118e+02 </wgt>
<wgt id='138'> +4.5651836e+02 </wgt>
<wgt id='139'> +5.0005699e+02 </wgt>
<wgt id='140'> +4.9939448e+02 </wgt>
<wgt id='141'> +4.8896651e+02 </wgt>
<wgt id='142'> +4.5437053e+02 </wgt>
<wgt id='143'> +4.8929636e+02 </wgt>
<wgt id='144'> +4.6803483e+02 </wgt>
<wgt id='145'> +4.8093724e+02 </wgt>
</rwgt>
</event>
<event>
 8      1 +4.8159400e+02 2.00363200e+02 7.54677100e-03 1.14956600e-01
       21 -1    0    0  503  502 +0.0000000000e+00 +0.0000000000e+00 +1.1356178258e+02 1.1356178258e+02 0.0000000000e+00 0.0000e+00 -1.0000e+00
       21 -1    0    0  501  503 -0.0000000000e+00 -0.0000000000e+00 -3.5682372144e+02 3.5682372144e+02 0.0000000000e+00 0.0000e+00 -1.0000e+00
        6  2    1    2  501    0 +9.8005058156e+01 +2.6744477210e+01 -9.5254236197e+01 2.2128376294e+02 1.7196765900e+02 0.0000e+00 0.0000e+00
       -6  2    1    2    0  502 -9.8005058156e+01 -2.6744477210e+01 -1.4800770267e+02 2.4910174108e+02 1.7269956246e+02 0.0000e+00 0.0000e+00
        5  1    3    3  501    0 +9.3492451038e+01 -2.5900611069e+01 -7.5578490273e+01 1.2306859163e+02 4.7000000000e+00 0.0000e+00 -1.0000e+00
       24  1    3    3    0    0 +4.5126071174e+00 +5.2645088278e+01 -1.9675745924e+01 9.8215171307e+01 8.0419002446e+01 0.0000e+00 -1.0000e+00
       -5  1    4    4    0  502 -5.3918351081e+01 +1.9806782994e+01 +1.2020285615e+01 5.8873376853e+01 4.7000000000e+00 0.0000e+00 1.0000e+00
      -24  1    4    4    0    0 -4.4086707075e+01 -4.6551260204e+01 -1.6002798828e+02 1.9022836422e+02 8.0419002446e+01 0.0000e+00 0.0000e+00
<mgrwt>
<rscale>  2 0.20020535E+03</rscale>
<asrwt>0</asrwt>
<pdfrwt beam="1">  1       21 0.17471043E-01 0.20036316E+03</pdfrwt>
<pdfrwt beam="2">  1       21 0.54895958E-01 0.20036316E+03</pdfrwt>
<totfact> 0.92605393E+04</totfact>
</mgrwt>
<rwgt>
<wgt id='1'> +6.1493750e+02 </wgt>
<wgt id='2'> +5.2180607e+02 </wgt>
<wgt id='3'> +5.0254092e+02 </wgt>
<wgt id='4'> +6.4335964e+02 </wgt>
<wgt id='5'> +4.8072825e+02 </wgt>
<wgt id='6'> +5.8981298e+02 </wgt>
<wgt id='7'> +4.9334381e+02 </wgt>
<wgt id='8'> +4.7419596e+02 </wgt>
<wgt id='9'> +6.1914889e+02 </wgt>
<wgt id='10'> +4.5306341e+02 </wgt>
<wgt id='11'> +5.5588091e+02 </wgt>
<wgt id='12'> +4.6468777e+02 </wgt>
<wgt id='13'> +4.4660719e+02 </wgt>
<wgt id='14'> +5.8422686e+02 </wgt>
<wgt id='15'> +4.2666689e+02 </wgt>
<wgt id='16'> +5.0210867e+02 </wgt>
<wgt id='17'> +4.3639716e+02 </wgt>
<wgt id='18'> +4.2200049e+02 </wgt>
<wgt id='19'> +5.2219192e+02 </wgt>
<wgt id='20'> +4.0517444e+02 </wgt>
<wgt id='21'> +4.1259358e+02 </wgt>
<wgt id='22'> +3.9819828e+02 </wgt>
<wgt id='23'> +5.0254092e+02 </wgt>
<wgt id='24'> +3.8185756e+02 </wgt>
<wgt id='25'> +4.5388780e+02 </wgt>
<wgt id='26'> +3.8862795e+02 </wgt>
<wgt id='27'> +3.7503106e+02 </wgt>
<wgt id='28'> +4.7419596e+02 </wgt>
<wgt id='29'> +3.5960965e+02 </wgt>
<wgt id='30'> +4.2314156e+02 </wgt>
<wgt id='31'> +3.7111912e+02 </wgt>
<wgt id='32'> +3.5960649e+02 </wgt>
<wgt id='33'> +4.3850209e+02 </wgt>
<wgt id='34'> +3.4607930e+02 </wgt>
<wgt id='35'> +4.0585325e+02 </wgt>
<wgt id='36'> +3.5087618e+02 </wgt>
<wgt id='37'> +3.3932350e+02 </wgt>
<wgt id='38'> +4.2200049e+02 </wgt>
<wgt id='39'> +3.2616321e+02 </wgt>
<wgt id='40'> +3.8250443e+02 </wgt>
<wgt id='41'> +3.3049542e+02 </wgt>
<wgt id='42'> +3.1958162e+02 </wgt>
<wgt id='43'> +3.9819828e+02 </wgt>
<wgt id='44'> +3.0716018e+02 </wgt>
<wgt id='45'> +4.8159400e+02 </wgt>
<wgt id='46'> +4.8175917e+02 </wgt>
<wgt id='47'> +4.9700822e+02 </wgt>
<wgt id='48'> +4.8242534e+02 </wgt>
<wgt id='49'> +4.8008511e+02 </wgt>
<wgt id='50'> +5.5732736e+02 </wgt>
<wgt id='51'> +4.7233593e+02 </wgt>
<wgt id='52'> +4.7931559e+02 </wgt>
<wgt id='53'> +4.8610238e+02 </wgt>
<wgt id='54'> +4.8453125e+02 </wgt>
<wgt id='55'> +4.3522315e+02 </wgt>
<wgt id='56'> +4.4902062e+02 </wgt>
<wgt id='57'> +4.7102995e+02 </wgt>
<wgt id='58'> +4.8480671e+02 </wgt>
<wgt id='59'> +4.7698750e+02 </wgt>
<wgt id='60'> +4.6444493e+02 </wgt>
<wgt id='61'> +4.6612221e+02 </wgt>
<wgt id='62'> +4.7497785e+02 </wgt>
<wgt id='63'> +4.8205256e+02 </wgt>
<wgt id='64'> +4.7728370e+02 </wgt>
<wgt id='65'> +5.6103218e+02 </wgt>
<wgt id='66'> +4.7049942e+02 </wgt>
<wgt id='67'> +4.8573306e+02 </wgt>
<wgt id='68'> +5.1549801e+02 </wgt>
<wgt id='69'> +4.6920608e+02 </wgt>
<wgt id='70'> +4.7424922e+02 </wgt>
<wgt id='71'> +4.9041811e+02 </wgt>
<wgt id='72'> +4.7080449e+02 </wgt>
<wgt id='73'> +4.7533301e+02 </wgt>
<wgt id='74'> +4.9571918e+02 </wgt>
<wgt id='75'> +4.9137289e+02 </wgt>
<wgt id='76'> +4.6935475e+02 </wgt>
<wgt id='77'> +4.6500801e+02 </wgt>
<wgt id='78'> +4.8054424e+02 </wgt>
<wgt id='79'> +4.6351837e+02 </wgt>
<wgt id='80'> +4.7720305e+02 </wgt>
<wgt id='81'> +4.7345824e+02 </wgt>
<wgt id='82'> +4.9252162e+02 </wgt>
<wgt id='83'> +4.8975921e+02 </wgt>
<wgt id='84'> +5.2528619e+02 </wgt>
<wgt id='85'> +5.0403313e+02 </wgt>
<wgt id='86'> +4.7817693e+02 </wgt>
<wgt id='87'> +4.8166545e+02 </wgt>
<wgt id='88'> +4.8821159e+02 </wgt>
<wgt id='89'> +4.9198019e+02 </wgt>
<wgt id='90'> +4.8751286e+02 </wgt>
<wgt id='91'> +5.0989274e+02 </wgt>
<wgt id='92'> +4.4663410e+02 </wgt>
<wgt id='93'> +4.7356685e+02 </wgt>
<wgt id='94'> +4.7906006e+02 </wgt>
<wgt id='95'> +4.6469621e+02 </wgt>
<wgt id='96'> +5.1683394e+02 </wgt>
<wgt id='97'> +4.8816756e+02 </wgt>
<wgt id='98'> +4.6102089e+02 </wgt>
<wgt id='99'> +4.6751972e+02 </wgt>
<wgt id='100'> +4.7719560e+02 </wgt>
<wgt id='101'> +5.0586852e+02 </wgt>
<wgt id='102'> +4.6910123e+02 </wgt>
<wgt id='103'> +5.2058975e+02 </wgt>
<wgt id='104'> +4.8024654e+02 </wgt>
<wgt id='105'> +5.0083313e+02 </wgt>
<wgt id='106'> +4.4571527e+02 </wgt>
<wgt id='107'> +4.7591737e+02 </wgt>
<wgt id='108'> +4.3383683e+02 </wgt>
<wgt id='109'> +4.5442944e+02 </wgt>
<wgt id='110'> +4.8266602e+02 </wgt>
<wgt id='111'> +4.6995444e+02 </wgt>
<wgt id='112'> +4.6027248e+02 </wgt>
<wgt id='113'> +4.4452397e+02 </wgt>
<wgt id='114'> +4.8075608e+02 </wgt>
<wgt id='115'> +4.8013077e+02 </wgt>
<wgt id='116'> +4.8101934e+02 </wgt>
<wgt id='117'> +4.8665611e+02 </wgt>
<wgt id='118'> +4.9305242e+02 </wgt>
<wgt id='119'> +4.6478728e+02 </wgt>
<wgt id='120'> +4.7807230e+02 </wgt>
<wgt id='121'> +4.6973913e+02 </wgt>
<wgt id='122'> +4.7595067e+02 </wgt>
<wgt id='123'> +4.8643294e+02 </wgt>
<wgt id='124'> +5.1338284e+02 </wgt>
<wgt id='125'> +5.1498210e+02 </wgt>
<wgt id='126'> +4.9820024e+02 </wgt>
<wgt id='127'> +4.9470534e+02 </wgt>
<wgt id='128'> +4.4727139e+02 </wgt>
<wgt id='129'> +5.4258070e+02 </wgt>
<wgt id='130'> +4.8324668e+02 </wgt>
<wgt id='131'> +5.1353671e+02 </wgt>
<wgt id='132'> +4.7957679e+02 </wgt>
<wgt id='133'> +4.7890320e+02 </wgt>
<wgt id='134'> +4.5559374e+02 </wgt>
<wgt id='135'> +4.9310409e+02 </wgt>
<wgt id='136'> +4.6570393e+02 </wgt>
<wgt id='137'> +4.5426219e+02 </wgt>
<wgt id='138'> +4.3837103e+02 </wgt>
<wgt id='139'> +4.9067564e+02 </wgt>
<wgt id='140'> +5.0987890e+02 </wgt>
<wgt id='141'> +4.8105267e+02 </wgt>
<wgt id='142'> +4.8291094e+02 </wgt>
<wgt id='143'> +4.7910646e+02 </wgt>
<wgt id='144'> +4.8163310e+02 </wgt>
<wgt id='145'> +4.8244388e+02 </wgt>
</rwgt>
</event>
<event>
 8      1 +4.8159400e+02 1.77249600e+02 7.54677100e-03 1.17153700e-01
       21 -1    0    0  503  502 +0.0000000000e+00 +0.0000000000e+00 +3.0931714713e+02 3.0931714713e+02 0.0000000000e+00 0.0000e+00 1.0000e+00
       21 -1    0    0  501  503 -0.0000000000e+00 -0.0000000000e+00 -1.1168968314e+02 1.1168968314e+02 0.0000000000e+00 0.0000e+00 1.0000e+00
        6  2    1    2  501    0 -2.2926301062e+01 -1.4439459603e+01 +2.7350105076e+01 1.7521867744e+02 1.7093695739e+02 0.0000e+00 0.0000e+00
       -6  2    1    2    0  502 +2.2926301062e+01 +1.4439459603e+01 +1.7027735892e+02 2.4578815283e+02 1.7516656027e+02 0.0000e+00 0.0000e+00
        5  1    3    3  501    0 -1.1248575752e+01 +6.0373204390e+01 +7.1133273763e-01 6.1595862353e+01 4.7000000000e+00 0.0000e+00 -1.0000e+00
       24  1    3    3    0    0 -1.1677725310e+01 -7.4812663993e+01 +2.6638772338e+01 1.1362281509e+02 8.0419002446e+01 0.0000e+00 0.0000e+00
       -5  1    4    4    0  502 +5.3813227906e+01 +4.1640789696e+01 +2.1108874031e+01 7.1396732607e+01 4.7000000000e+00 0.0000e+00 1.0000e+00
      -24  1    4    4    0    0 -3.0886926844e+01 -2.7201330093e+01 +1.4916848489e+02 1.7439142022e+02 8.0419002446e+01 0.0000e+00 1.0000e+00
<mgrwt>
<rscale>  2 0.17619561E+03</rscale>
<asrwt>0</asrwt>
<pdfrwt beam="1">  1       21 0.47587253E-01 0.17724965E+03</pdfrwt>
<pdfrwt beam="2">  1       21 0.17183028E-01 0.17724965E+03</pdfrwt>
<totfact> 0.12985557E+05</totfact>
</mgrwt>
<rwgt>
<wgt id='1'> +6.1286568e+02 </wgt>
<wgt id='2'> +5.1889906e+02 </wgt>
<wgt id='3'> +4.9229074e+02 </wgt>
<wgt id='4'> +6.2720758e+02 </wgt>
<wgt id='5'> +4.7319166e+02 </wgt>
<wgt id='6'> +5.9345611e+02 </wgt>
<wgt id='7'> +4.9500978e+02 </wgt>
<wgt id='8'> +4.6763766e+02 </wgt>
<wgt id='9'> +6.0831612e+02 </wgt>
<wgt id='10'> +4.4867446e+02 </wgt>
<wgt id='11'> +5.6305657e+02 </wgt>
<wgt id='12'> +4.6870678e+02 </wgt>
<wgt id='13'> +4.4266097e+02 </wgt>
<wgt id='14'> +5.7785270e+02 </wgt>
<wgt id='15'> +4.2463266e+02 </wgt>
<wgt id='16'> +4.9734501e+02 </wgt>
<wgt id='17'> +4.3158125e+02 </wgt>
<wgt id='18'> +4.1239167e+02 </wgt>
<wgt id='19'> +5.0757898e+02 </wgt>
<wgt id='20'> +3.9797018e+02 </wgt>
<wgt id='21'> +4.1171195e+02 </wgt>
<wgt id='22'> +3.9173980e+02 </wgt>
<wgt id='23'> +4.9229074e+02 </wgt>
<wgt id='24'> +3.7735038e+02 </wgt>
<wgt id='25'> +4.5692455e+02 </wgt>
<wgt id='26'> +3.8983509e+02 </wgt>
<wgt id='27'> +3.7081684e+02 </wgt>
<wgt id='28'> +4.6763766e+02 </wgt>
<wgt id='29'> +3.5713041e+02 </wgt>
<wgt id='30'> +4.1758074e+02 </wgt>
<wgt id='31'> +3.6622475e+02 </wgt>
<wgt id='32'> +3.5097218e+02 </wgt>
<wgt id='33'> +4.2519862e+02 </wgt>
<wgt id='34'> +3.3943521e+02 </wgt>
<wgt id='35'> +4.0435588e+02 </wgt>
<wgt id='36'> +3.4936435e+02 </wgt>
<wgt id='37'> +3.3339610e+02 </wgt>
<wgt id='38'> +4.1239167e+02 </wgt>
<wgt id='39'> +3.2184825e+02 </wgt>
<wgt id='40'> +3.8364292e+02 </wgt>
<wgt id='41'> +3.3080041e+02 </wgt>
<wgt id='42'> +3.1558930e+02 </wgt>
<wgt id='43'> +3.9173980e+02 </wgt>
<wgt id='44'> +3.0460232e+02 </wgt>
<wgt id='45'> +4.8159400e+02 </wgt>
<wgt id='46'> +4.7902490e+02 </wgt>
<wgt id='47'> +4.9592765e+02 </wgt>
<wgt id='48'> +4.8092567e+02 </wgt>
<wgt id='49'> +4.8075132e+02 </wgt>
<wgt id='50'> +5.5110712e+02 </wgt>
<wgt id='51'> +4.7245689e+02 </wgt>
<wgt id='52'> +4.7871700e+02 </wgt>
<wgt id='53'> +4.8852903e+02 </wgt>
<wgt id='54'> +4.8425282e+02 </wgt>
<wgt id='55'> +4.3377284e+02 </wgt>
<wgt id='56'> +4.5180900e+02 </wgt>
<wgt id='57'> +4.7005411e+02 </wgt>
<wgt id='58'> +4.8773496e+02 </wgt>
<wgt id='59'> +4.7315650e+02 </wgt>
<wgt id='60'> +4.6121183e+02 </wgt>
<wgt id='61'> +4.7338184e+02 </wgt>
<wgt id='62'> +4.7473858e+02 </wgt>
<wgt id='63'> +4.8198056e+02 </wgt>
<wgt id='64'> +4.7966084e+02 </wgt>
<wgt id='65'> +5.6358893e+02 </wgt>
<wgt id='66'> +4.6975920e+02 </wgt>
<wgt id='67'> +4.8584094e+02 </wgt>
<wgt id='68'> +5.1209865e+02 </wgt>
<wgt id='69'> +4.6576313e+02 </wgt>
<wgt id='70'> +4.7453007e+02 </wgt>
<wgt id='71'> +4.9081609e+02 </wgt>
<wgt id='72'> +4.7497769e+02 </wgt>
<wgt id='73'> +4.7698457e+02 </wgt>
<wgt id='74'> +4.9263035e+02 </wgt>
<wgt id='75'> +4.9074191e+02 </wgt>
<wgt id='76'> +4.6927992e+02 </wgt>
<wgt id='77'> +4.6310611e+02 </wgt>
<wgt id='78'> +4.8438027e+02 </wgt>
<wgt id='79'> +4.6120522e+02 </wgt>
<wgt id='80'> +4.7863233e+02 </wgt>
<wgt id='81'> +4.7427753e+02 </wgt>
<wgt id='82'> +4.9519296e+02 </wgt>
<wgt id='83'> +4.8891570e+02 </wgt>
<wgt id='84'> +5.2497705e+02 </wgt>
<wgt id='85'> +5.0529427e+02 </wgt>
<wgt id='86'> +4.7646284e+02 </wgt>
<wgt id='87'> +4.8069930e+02 </wgt>
<wgt id='88'> +4.8791535e+02 </wgt>
<wgt id='89'> +4.9147341e+02 </wgt>
<wgt id='90'> +4.8648502e+02 </wgt>
<wgt id='91'> +5.1191612e+02 </wgt>
<wgt id='92'> +4.5052798e+02 </wgt>
<wgt id='93'> +4.7196921e+02 </wgt>
<wgt id='94'> +4.8130516e+02 </wgt>
<wgt id='95'> +4.6464950e+02 </wgt>
<wgt id='96'> +5.1449190e+02 </wgt>
<wgt id='97'> +4.9032045e+02 </wgt>
<wgt id='98'> +4.5959698e+02 </wgt>
<wgt id='99'> +4.6917105e+02 </wgt>
<wgt id='100'> +4.8284331e+02 </wgt>
<wgt id='101'> +5.0004823e+02 </wgt>
<wgt id='102'> +4.6359875e+02 </wgt>
<wgt id='103'> +5.1935496e+02 </wgt>
<wgt id='104'> +4.7873006e+02 </wgt>
<wgt id='105'> +5.0266656e+02 </wgt>
<wgt id='106'> +4.4928563e+02 </wgt>
<wgt id='107'> +4.8065844e+02 </wgt>
<wgt id='108'> +4.3747266e+02 </wgt>
<wgt id='109'> +4.5643503e+02 </wgt>
<wgt id='110'> +4.8383170e+02 </wgt>
<wgt id='111'> +4.7117572e+02 </wgt>
<wgt id='112'> +4.6249260e+02 </wgt>
<wgt id='113'> +4.4574077e+02 </wgt>
<wgt id='114'> +4.8497908e+02 </wgt>
<wgt id='115'> +4.8559173e+02 </wgt>
<wgt id='116'> +4.7675873e+02 </wgt>
<wgt id='117'> +4.8878404e+02 </wgt>
<wgt id='118'> +4.8953819e+02 </wgt>
<wgt id='119'> +4.6531387e+02 </wgt>
<wgt id='120'> +4.8121349e+02 </wgt>
<wgt id='121'> +4.7060848e+02 </wgt>
<wgt id='122'> +4.7625403e+02 </wgt>
<wgt id='123'> +4.8584152e+02 </wgt>
<wgt id='124'> +5.0867239e+02 </wgt>
<wgt id='125'> +5.1039565e+02 </wgt>
<wgt id='126'> +4.9720722e+02 </wgt>
<wgt id='127'> +4.9381724e+02 </wgt>
<wgt id='128'> +4.4968482e+02 </wgt>
<wgt id='129'> +5.4216487e+02 </wgt>
<wgt id='130'> +4.8315043e+02 </wgt>
<wgt id='131'> +5.1486262e+02 </wgt>
<wgt id='132'> +4.7534921e+02 </wgt>
<wgt id='133'> +4.7549749e+02 </wgt>
<wgt id='134'> +4.5391875e+02 </wgt>
<wgt id='135'> +4.9364704e+02 </wgt>
<wgt id='136'> +4.6155264e+02 </wgt>
<wgt id='137'> +4.5261360e+02 </wgt>
<wgt id='138'> +4.3449728e+02 </wgt>
<wgt id='139'> +4.8923922e+02 </wgt>
<wgt id='140'> +5.1251304e+02 </wgt>
<wgt id='141'> +4.7968325e+02 </wgt>
<wgt id='142'> +4.8808922e+02 </wgt>
<wgt id='143'> +4.7692085e+02 </wgt>
<wgt id='144'> +4.8395273e+02 </wgt>
<wgt id='145'> +4.8256723e+02 </wgt>
</rwgt>
</event>
<event>
 8      1 +4.8159400e+02 2.41437000e+02 7.54677100e-03 1.11931000e-01
       21 -1    0    0  503  502 +0.0000000000e+00 +0.0000000000e+00 +6.7843615966e+01 6.7843615966e+01 0.0000000000e+00 0.0000e+00 1.0000e+00
       21 -1    0    0  501  503 -0.0000000000e+00 -0.0000000000e+00 -1.0059701821e+03 1.0059701821e+03 0.0000000000e+00 0.0000e+00 -1.0000e+00
        6  2    1    2  501    0 -1.0496486705e+02 +1.3067603802e+02 -6.7869962794e+02 7.1942111186e+02 1.6982255741e+02 0.0000e+00 0.0000e+00
       -6  2    1    2    0  502 +1.0496486705e+02 -1.3067603802e+02 -2.5942693822e+02 3.5439268623e+02 1.7377568745e+02 0.0000e+00 0.0000e+00
        5  1    3    3  501    0 -1.1334953965e+02 +5.3730610516e+01 -3.9873140082e+02 4.1802382306e+02 4.7000000000e+00 0.0000e+00 -1.0000e+00
       24  1    3    3    0    0 +8.3846726040e+00 +7.6945427506e+01 -2.7996822712e+02 3.0139728881e+02 8.0419002446e+01 0.0000e+00 1.0000e+00
       -5  1    4    4    0  502 +6.7777112711e+01 -1.3337454844e+02 -1.3464170979e+02 2.0132805864e+02 4.7000000000e+00 0.0000e+00 1.0000e+00
      -24  1    4    4    0    0 +3.7187754340e+01 +2.6985104169e+00 -1.2478522843e+02 1.5306462759e+02 8.0419002446e+01 0.0000e+00 1.0000e+00
<mgrwt>
<rscale>  2 0.24072652E+03</rscale>
<asrwt>0</asrwt>
<pdfrwt beam="1">  1       21 0.10437479E-01 0.24143703E+03</pdfrwt>
<pdfrwt beam="2">  1       21 0.15476465E+00 0.24143703E+03</pdfrwt>
<totfact> 0.20075212E+04</totfact>
</mgrwt>
<rwgt>
<wgt id='1'> +6.3584721e+02 </wgt>
<wgt id='2'> +5.1843594e+02 </wgt>
<wgt id='3'> +4.8413493e+02 </wgt>
<wgt id='4'> +6.3935728e+02 </wgt>
<wgt id='5'> +4.6678313e+02 </wgt>
<wgt id='6'> +5.8389865e+02 </wgt>
<wgt id='7'> +4.7181344e+02 </wgt>
<wgt id='8'> +4.4083794e+02 </wgt>
<wgt id='9'> +5.8736015e+02 </wgt>
<wgt id='10'> +4.2514170e+02 </wgt>
<wgt id='11'> +5.3170045e+02 </wgt>
<wgt id='12'> +4.3027537e+02 </wgt>
<wgt id='13'> +4.0226727e+02 </wgt>
<wgt id='14'> +5.3483155e+02 </wgt>
<wgt id='15'> +3.8807522e+02 </wgt>
<wgt id='16'> +5.2444067e+02 </wgt>
<wgt id='17'> +4.3687078e+02 </wgt>
<wgt id='18'> +4.0938990e+02 </wgt>
<wgt id='19'> +5.2699386e+02 </wgt>
<wgt id='20'> +3.9546208e+02 </wgt>
<wgt id='21'> +3.9758337e+02 </wgt>
<wgt id='22'> +3.7277748e+02 </wgt>
<wgt id='23'> +4.8413493e+02 </wgt>
<wgt id='24'> +3.6018316e+02 </wgt>
<wgt id='25'> +4.3854143e+02 </wgt>
<wgt id='26'> +3.6258046e+02 </wgt>
<wgt id='27'> +3.4016170e+02 </wgt>
<wgt id='28'> +4.4083794e+02 </wgt>
<wgt id='29'> +3.2878016e+02 </wgt>
<wgt id='30'> +4.4358553e+02 </wgt>
<wgt id='31'> +3.7309610e+02 </wgt>
<wgt id='32'> +3.5070493e+02 </wgt>
<wgt id='33'> +4.4563189e+02 </wgt>
<wgt id='34'> +3.3932174e+02 </wgt>
<wgt id='35'> +4.0734470e+02 </wgt>
<wgt id='36'> +3.3954390e+02 </wgt>
<wgt id='37'> +3.1934080e+02 </wgt>
<wgt id='38'> +4.0938990e+02 </wgt>
<wgt id='39'> +3.0905106e+02 </wgt>
<wgt id='40'> +3.7092972e+02 </wgt>
<wgt id='41'> +3.0965073e+02 </wgt>
<wgt id='42'> +2.9140040e+02 </wgt>
<wgt id='43'> +3.7277748e+02 </wgt>
<wgt id='44'> +2.8210608e+02 </wgt>
<wgt id='45'> +4.8159400e+02 </wgt>
<wgt id='46'> +4.9529461e+02 </wgt>
<wgt id='47'> +4.9570402e+02 </wgt>
<wgt id='48'> +4.8257232e+02 </wgt>
<wgt id='49'> +4.5708018e+02 </wgt>
<wgt id='50'> +5.7156575e+02 </wgt>
<wgt id='51'> +4.6030794e+02 </wgt>
<wgt id='52'> +4.6667069e+02 </wgt>
<wgt id='53'> +4.7722101e+02 </wgt>
<wgt id='54'> +5.0260073e+02 </wgt>
<wgt id='55'> +5.0146896e+02 </wgt>
<wgt id='56'> +4.4898463e+02 </wgt>
<wgt id='57'> +5.0148758e+02 </wgt>
<wgt id='58'> +4.5095903e+02 </wgt>
<wgt id='59'> +5.1629475e+02 </wgt>
<wgt id='60'> +4.8332344e+02 </wgt>
<wgt id='61'> +4.2989566e+02 </wgt>
<wgt id='62'> +4.5752280e+02 </wgt>
<wgt id='63'> +4.9630386e+02 </wgt>
<wgt id='64'> +4.7785017e+02 </wgt>
<wgt id='65'> +4.8417416e+02 </wgt>
<wgt id='66'> +4.8058236e+02 </wgt>
<wgt id='67'> +4.8376703e+02 </wgt>
<wgt id='68'> +5.5747710e+02 </wgt>
<wgt id='69'> +5.0151692e+02 </wgt>
<wgt id='70'> +4.9494922e+02 </wgt>
<wgt id='71'> +4.6712068e+02 </wgt>
<wgt id='72'> +4.5334384e+02 </wgt>
<wgt id='73'> +4.4799484e+02 </wgt>
<wgt id='74'> +5.3104687e+02 </wgt>
<wgt id='75'> +5.0590794e+02 </wgt>
<wgt id='76'> +4.8782063e+02 </wgt>
<wgt id='77'> +4.6557245e+02 </wgt>
<wgt id='78'> +4.3436246e+02 </wgt>
<wgt id='79'> +4.9661665e+02 </wgt>
<wgt id='80'> +4.4662247e+02 </wgt>
<wgt id='81'> +4.8466504e+02 </wgt>
<wgt id='82'> +4.6654838e+02 </wgt>
<wgt id='83'> +4.7967978e+02 </wgt>
<wgt id='84'> +4.9205097e+02 </wgt>
<wgt id='85'> +4.5970027e+02 </wgt>
<wgt id='86'> +4.9452823e+02 </wgt>
<wgt id='87'> +4.8076007e+02 </wgt>
<wgt id='88'> +4.7479150e+02 </wgt>
<wgt id='89'> +4.4885708e+02 </wgt>
<wgt id='90'> +4.7131666e+02 </wgt>
<wgt id='91'> +4.5351793e+02 </wgt>
<wgt id='92'> +4.4588260e+02 </wgt>
<wgt id='93'> +4.8317673e+02 </wgt>
<wgt id='94'> +4.5254977e+02 </wgt>
<wgt id='95'> +4.9567488e+02 </wgt>
<wgt id='96'> +5.0739779e+02 </wgt>
<wgt id='97'> +4.5448340e+02 </wgt>
<wgt id='98'> +4.9519543e+02 </wgt>
<wgt id='99'> +4.2821429e+02 </wgt>
<wgt id='100'> +4.0326183e+02 </wgt>
<wgt id='101'> +5.5059873e+02 </wgt>
<wgt id='102'> +5.2330474e+02 </wgt>
<wgt id='103'> +4.8795640e+02 </wgt>
<wgt id='104'> +5.0176219e+02 </wgt>
<wgt id='105'> +4.9513071e+02 </wgt>
<wgt id='106'> +4.5378409e+02 </wgt>
<wgt id='107'> +4.5858617e+02 </wgt>
<wgt id='108'> +4.3833439e+02 </wgt>
<wgt id='109'> +4.6700504e+02 </wgt>
<wgt id='110'> +4.5936897e+02 </wgt>
<wgt id='111'> +4.6970965e+02 </wgt>
<wgt id='112'> +4.8097592e+02 </wgt>
<wgt id='113'> +4.7558906e+02 </wgt>
<wgt id='114'> +4.8677591e+02 </wgt>
<wgt id='115'> +4.4636991e+02 </wgt>
<wgt id='116'> +5.1595086e+02 </wgt>
<wgt id='117'> +4.7160506e+02 </wgt>
<wgt id='118'> +5.0265383e+02 </wgt>
<wgt id='119'> +5.0053650e+02 </wgt>
<wgt id='120'> +4.7863755e+02 </wgt>
<wgt id='121'> +4.7691373e+02 </wgt>
<wgt id='122'> +4.7446997e+02 </wgt>
<wgt id='123'> +4.7250817e+02 </wgt>
<wgt id='124'> +5.4147167e+02 </wgt>
<wgt id='125'> +5.7279496e+02 </wgt>
<wgt id='126'> +4.8241109e+02 </wgt>
<wgt id='127'> +4.7672961e+02 </wgt>
<wgt id='128'> +4.5013305e+02 </wgt>
<wgt id='129'> +5.1409610e+02 </wgt>
<wgt id='130'> +4.6645250e+02 </wgt>
<wgt id='131'> +4.6919944e+02 </wgt>
<wgt id='132'> +5.2210920e+02 </wgt>
<wgt id='133'> +5.1282649e+02 </wgt>
<wgt id='134'> +4.8984912e+02 </wgt>
<wgt id='135'> +4.7261924e+02 </wgt>
<wgt id='136'> +5.4002695e+02 </wgt>
<wgt id='137'> +4.8262819e+02 </wgt>
<wgt id='138'> +4.7527748e+02 </wgt>
<wgt id='139'> +4.9635667e+02 </wgt>
<wgt id='140'> +4.7913806e+02 </wgt>
<wgt id='141'> +5.1816011e+02 </wgt>
<wgt id='142'> +3.9265098e+02 </wgt>
<wgt id='143'> +4.9493465e+02 </wgt>
<wgt id='144'> +4.5284144e+02 </wgt>
<wgt id='145'> +4.5888448e+02 </wgt>
</rwgt>
</event>
<event>
 8      1 +4.8159400e+02 1.97528400e+02 7.54677100e-03 1.15302900e-01
       21 -1    0    0  503  502 +0.0000000000e+00 +0.0000000000e+00 +2.4021170504e+03 2.4021170504e+03 0.0000000000e+00 0.0000e+00 -1.0000e+00
       21 -1    0    0  501  503 -0.0000000000e+00 -0.0000000000e+00 -3.1831484679e+01 3.1831484679e+01 0.0000000000e+00 0.0000e+00 1.0000e+00
        6  2    1    2  501    0 -7.1131333204e+01 +4.2759631573e+01 +3.1322049290e+02 3.6742145592e+02 1.7321488517e+02 0.0000e+00 0.0000e+00
       -6  2    1    2    0  502 +7.1131333204e+01 -4.2759631573e+01 +2.0570650728e+03 2.0665270792e+03 1.7924676403e+02 0.0000e+00 0.0000e+00
        5  1    3    3  501    0 -5.2167678674e+01 +2.3124391628e+01 +2.6213435959e+02 2.6831458526e+02 4.7000000000e+00 0.0000e+00 -1.0000e+00
       24  1    3    3    0    0 -1.8963654530e+01 +1.9635239945e+01 +5.1086133308e+01 9.9106870658e+01 8.0419002446e+01 0.0000e+00 1.0000e+00
       -5  1    4    4    0  502 -1.3545277075e+01 +5.5609076618e+00 +1.8538165810e+01 2.4086340873e+01 4.7000000000e+00 0.0000e+00 1.0000e+00
      -24  1    4    4    0    0 +8.4676610279e+01 -4.8320539235e+01 +2.0385269070e+03 2.0424407383e+03 8.0419002446e+01 0.0000e+00 0.0000e+00
<mgrwt>
<rscale>  2 0.19614978E+03</rscale>
<asrwt>0</asrwt>
<pdfrwt beam="1">  1       21 0.36955633E+00 0.19752837E+03</pdfrwt>
<pdfrwt beam="2">  1       21 0.48971534E-02 0.19752837E+03</pdfrwt>
<totfact> 0.37021788E+03</totfact>
</mgrwt>
<rwgt>
<wgt id='1'> +7.0390087e+02 </wgt>
<wgt id='2'> +6.6701228e+02 </wgt>
<wgt id='3'> +5.7346648e+02 </wgt>
<wgt id='4'> +8.5170460e+02 </wgt>
<wgt id='5'> +4.0447207e+02 </wgt>
<wgt id='6'> +5.9044569e+02 </wgt>
<wgt id='7'> +5.5916053e+02 </wgt>
<wgt id='8'> +4.7981722e+02 </wgt>
<wgt id='9'> +7.1238503e+02 </wgt>
<wgt id='10'> +3.4096307e+02 </wgt>
<wgt id='11'> +4.9456463e+02 </wgt>
<wgt id='12'> +4.6915498e+02 </wgt>
<wgt id='13'> +4.0467869e+02 </wgt>
<wgt id='14'> +5.9604984e+02 </wgt>
<wgt id='15'> +2.9096034e+02 </wgt>
<wgt id='16'> +5.7413314e+02 </wgt>
<wgt id='17'> +5.4698601e+02 </wgt>
<wgt id='18'> +4.7701766e+02 </wgt>
<wgt id='19'> +6.8561807e+02 </wgt>
<wgt id='20'> +3.4305629e+02 </wgt>
<wgt id='21'> +4.5854177e+02 </wgt>
<wgt id='22'> +3.9911886e+02 </wgt>
<wgt id='23'> +5.7346648e+02 </wgt>
<wgt id='24'> +2.8919061e+02 </wgt>
<wgt id='25'> +4.0338910e+02 </wgt>
<wgt id='26'> +3.8473237e+02 </wgt>
<wgt id='27'> +3.3661755e+02 </wgt>
<wgt id='28'> +4.7981722e+02 </wgt>
<wgt id='29'> +2.4678039e+02 </wgt>
<wgt id='30'> +4.8359694e+02 </wgt>
<wgt id='31'> +4.6168835e+02 </wgt>
<wgt id='32'> +4.0479705e+02 </wgt>
<wgt id='33'> +5.7030696e+02 </wgt>
<wgt id='34'> +2.9463567e+02 </wgt>
<wgt id='35'> +4.0565049e+02 </wgt>
<wgt id='36'> +3.8703621e+02 </wgt>
<wgt id='37'> +3.3869215e+02 </wgt>
<wgt id='38'> +4.7701766e+02 </wgt>
<wgt id='39'> +2.4837286e+02 </wgt>
<wgt id='40'> +3.3977788e+02 </wgt>
<wgt id='41'> +3.2473674e+02 </wgt>
<wgt id='42'> +2.8565355e+02 </wgt>
<wgt id='43'> +3.9911886e+02 </wgt>
<wgt id='44'> +2.1194862e+02 </wgt>
<wgt id='45'> +4.8159400e+02 </wgt>
<wgt id='46'> +4.8450498e+02 </wgt>
<wgt id='47'> +6.0798233e+02 </wgt>
<wgt id='48'> +4.7872556e+02 </wgt>
<wgt id='49'> +4.0804170e+02 </wgt>
<wgt id='50'> +6.1618997e+02 </wgt>
<wgt id='51'> +4.8283741e+02 </wgt>
<wgt id='52'> +3.6845833e+02 </wgt>
<wgt id='53'> +5.6993839e+02 </wgt>
<wgt id='54'> +5.0364770e+02 </wgt>
<wgt id='55'> +6.1908253e+02 </wgt>
<wgt id='56'> +4.6160657e+02 </wgt>
<wgt id='57'> +5.4807311e+02 </wgt>
<wgt id='58'> +3.8469320e+02 </wgt>
<wgt id='59'> +5.3213363e+02 </wgt>
<wgt id='60'> +4.6320548e+02 </wgt>
<wgt id='61'> +3.5394137e+02 </wgt>
<wgt id='62'> +4.0110331e+02 </wgt>
<wgt id='63'> +5.1415224e+02 </wgt>
<wgt id='64'> +4.8404191e+02 </wgt>
<wgt id='65'> +3.4387020e+02 </wgt>
<wgt id='66'> +4.8892436e+02 </wgt>
<wgt id='67'> +4.5283897e+02 </wgt>
<wgt id='68'> +8.0289640e+02 </wgt>
<wgt id='69'> +5.8374795e+02 </wgt>
<wgt id='70'> +7.1628159e+02 </wgt>
<wgt id='71'> +4.0175903e+02 </wgt>
<wgt id='72'> +3.6917153e+02 </wgt>
<wgt id='73'> +3.8833956e+02 </wgt>
<wgt id='74'> +7.0115894e+02 </wgt>
<wgt id='75'> +6.4026098e+02 </wgt>
<wgt id='76'> +4.6878301e+02 </wgt>
<wgt id='77'> +3.9053324e+02 </wgt>
<wgt id='78'> +3.8510111e+02 </wgt>
<wgt id='79'> +5.5690238e+02 </wgt>
<wgt id='80'> +3.1595513e+02 </wgt>
<wgt id='81'> +5.4267212e+02 </wgt>
<wgt id='82'> +4.5580163e+02 </wgt>
<wgt id='83'> +4.8281990e+02 </wgt>
<wgt id='84'> +3.7771046e+02 </wgt>
<wgt id='85'> +3.9277112e+02 </wgt>
<wgt id='86'> +5.2311780e+02 </wgt>
<wgt id='87'> +4.3202688e+02 </wgt>
<wgt id='88'> +5.4515215e+02 </wgt>
<wgt id='89'> +2.5577701e+02 </wgt>
<wgt id='90'> +3.6576254e+02 </wgt>
<wgt id='91'> +3.3220738e+02 </wgt>
<wgt id='92'> +4.4094921e+02 </wgt>
<wgt id='93'> +5.3067799e+02 </wgt>
<wgt id='94'> +3.7728861e+02 </wgt>
<wgt id='95'> +4.9707577e+02 </wgt>
<wgt id='96'> +4.3956101e+02 </wgt>
<wgt id='97'> +3.8828912e+02 </wgt>
<wgt id='98'> +6.3743442e+02 </wgt>
<wgt id='99'> +3.4303545e+02 </wgt>
<wgt id='100'> +2.8211176e+02 </wgt>
<wgt id='101'> +6.2222461e+02 </wgt>
<wgt id='102'> +6.0427692e+02 </wgt>
<wgt id='103'> +3.8975222e+02 </wgt>
<wgt id='104'> +5.4803182e+02 </wgt>
<wgt id='105'> +5.0462320e+02 </wgt>
<wgt id='106'> +4.9768260e+02 </wgt>
<wgt id='107'> +5.1737243e+02 </wgt>
<wgt id='108'> +4.3089470e+02 </wgt>
<wgt id='109'> +4.9857706e+02 </wgt>
<wgt id='110'> +3.3072001e+02 </wgt>
<wgt id='111'> +4.4300089e+02 </wgt>
<wgt id='112'> +4.9205648e+02 </wgt>
<wgt id='113'> +6.3024740e+02 </wgt>
<wgt id='114'> +3.7121143e+02 </wgt>
<wgt id='115'> +4.6998253e+02 </wgt>
<wgt id='116'> +5.8027564e+02 </wgt>
<wgt id='117'> +5.1738109e+02 </wgt>
<wgt id='118'> +4.7784776e+02 </wgt>
<wgt id='119'> +5.0100272e+02 </wgt>
<wgt id='120'> +4.4882314e+02 </wgt>
<wgt id='121'> +4.2365283e+02 </wgt>
<wgt id='122'> +4.3141194e+02 </wgt>
<wgt id='123'> +4.0786956e+02 </wgt>
<wgt id='124'> +5.4845524e+02 </wgt>
<wgt id='125'> +7.8369812e+02 </wgt>
<wgt id='126'> +4.4825284e+02 </wgt>
<wgt id='127'> +4.2872192e+02 </wgt>
<wgt id='128'> +4.8111389e+02 </wgt>
<wgt id='129'> +4.4282934e+02 </wgt>
<wgt id='130'> +4.2756643e+02 </wgt>
<wgt id='131'> +3.9685085e+02 </wgt>
<wgt id='132'> +5.0608543e+02 </wgt>
<wgt id='133'> +5.3196723e+02 </wgt>
<wgt id='134'> +5.8047299e+02 </wgt>
<wgt id='135'> +4.5165855e+02 </wgt>
<wgt id='136'> +6.2147264e+02 </wgt>
<wgt id='137'> +5.8667818e+02 </wgt>
<wgt id='138'> +5.8193212e+02 </wgt>
<wgt id='139'> +5.1888449e+02 </wgt>
<wgt id='140'> +4.4810610e+02 </wgt>
<wgt id='141'> +7.0727787e+02 </wgt>
<wgt id='142'> +1.9306640e+02 </wgt>
<wgt id='143'> +5.0081117e+02 </wgt>
<wgt id='144'> +3.9954206e+02 </wgt>
<wgt id='145'> +4.0882045e+02 </wgt>
</rwgt>
</event>
<event>
 8      1 +4.8159400e+02 2.81035900e+02 7.54677100e-03 1.09554400e-01
       21 -1    0    0  503  502 +0.0000000000e+00 +0.0000000000e+00 +9.4857487297e+02 9.4857487297e+02 0.0000000000e+00 0.0000e+00 1.0000e+00
       21 -1    0    0  501  503 -0.0000000000e+00 -0.0000000000e+00 -9.0484751707e+01 9.0484751707e+01 0.0000000000e+00 0.0000e+00 1.0000e+00
        6  2    1    2  501    0 -9.8499415043e+01 -1.9382624518e+02 +2.7117792341e+02 3.8833150370e+02 1.7318528384e+02 0.0000e+00 0.0000e+00
       -6  2    1    2    0  502 +9.8499415043e+01 +1.9382624518e+02 +5.8691219786e+02 6.5072812097e+02 1.7807417373e+02 0.0000e+00 0.0000e+00
        5  1    3    3  501    0 +1.0968752798e+01 -2.6739734607e+01 +1.2423445552e+02 1.2763861831e+02 4.7000000000e+00 0.0000e+00 -1.0000e+00
       24  1    3    3    0    0 -1.0946816784e+02 -1.6708651058e+02 +1.4694346789e+02 2.6069288540e+02 8.0419002446e+01 0.0000e+00 0.0000e+00
       -5  1    4    4    0  502 +3.9057327736e+01 +8.4720871878e+01 +4.0789158814e+02 4.1845040167e+02 4.7000000000e+00 0.0000e+00 1.0000e+00
      -24  1    4    4    0    0 +5.9442087307e+01 +1.0910537331e+02 +1.7902060971e+02 2.3227771930e+02 8.0419002446e+01 0.0000e+00 0.0000e+00
<mgrwt>
<rscale>  2 0.28026469E+03</rscale>
<asrwt>0</asrwt>
<pdfrwt beam="1">  1       21 0.14593459E+00 0.28103587E+03</pdfrwt>
<pdfrwt beam="2">  1       21 0.13920732E-01 0.28103587E+03</pdfrwt>
<totfact> 0.13677883E+04</totfact>
</mgrwt>
<rwgt>
<wgt id='1'> +6.3604869e+02 </wgt>
<wgt id='2'> +5.1854252e+02 </wgt>
<wgt id='3'> +5.0942143e+02 </wgt>
<wgt id='4'> +6.7528139e+02 </wgt>
<wgt id='5'> +4.7356473e+02 </wgt>
<wgt id='6'> +5.7935738e+02 </wgt>
<wgt id='7'> +4.7036726e+02 </wgt>
<wgt id='8'> +4.6216133e+02 </wgt>
<wgt id='9'> +6.1733562e+02 </wgt>
<wgt id='10'> +4.2990620e+02 </wgt>
<wgt id='11'> +5.2586828e+02 </wgt>
<wgt id='12'> +4.2775745e+02 </wgt>
<wgt id='13'> +4.2037223e+02 </wgt>
<wgt id='14'> +5.6006409e+02 </wgt>
<wgt id='15'> +3.9133846e+02 </wgt>
<wgt id='16'> +5.2871897e+02 </wgt>
<wgt id='17'> +4.3827880e+02 </wgt>
<wgt id='18'> +4.3096408e+02 </wgt>
<wgt id='19'> +5.5723791e+02 </wgt>
<wgt id='20'> +4.0211110e+02 </wgt>
<wgt id='21'> +3.9756045e+02 </wgt>
<wgt id='22'> +3.9098263e+02 </wgt>
<wgt id='23'> +5.0942143e+02 </wgt>
<wgt id='24'> +3.6503998e+02 </wgt>
<wgt id='25'> +4.3713089e+02 </wgt>
<wgt id='26'> +3.6154609e+02 </wgt>
<wgt id='27'> +3.5562959e+02 </wgt>
<wgt id='28'> +4.6216133e+02 </wgt>
<wgt id='29'> +3.3229151e+02 </wgt>
<wgt id='30'> +4.4855602e+02 </wgt>
<wgt id='31'> +3.7530290e+02 </wgt>
<wgt id='32'> +3.6932681e+02 </wgt>
<wgt id='33'> +4.7141622e+02 </wgt>
<wgt id='34'> +3.4568726e+02 </wgt>
<wgt id='35'> +4.0857601e+02 </wgt>
<wgt id='36'> +3.4043534e+02 </wgt>
<wgt id='37'> +3.3506358e+02 </wgt>
<wgt id='38'> +4.3096408e+02 </wgt>
<wgt id='39'> +3.1381792e+02 </wgt>
<wgt id='40'> +3.7085428e+02 </wgt>
<wgt id='41'> +3.0959585e+02 </wgt>
<wgt id='42'> +3.0476679e+02 </wgt>
<wgt id='43'> +3.9098263e+02 </wgt>
<wgt id='44'> +2.8566468e+02 </wgt>
<wgt id='45'> +4.8159400e+02 </wgt>
<wgt id='46'> +4.9588654e+02 </wgt>
<wgt id='47'> +4.9738636e+02 </wgt>
<wgt id='48'> +4.8388067e+02 </wgt>
<wgt id='49'> +4.5936185e+02 </wgt>
<wgt id='50'> +5.7736052e+02 </wgt>
<wgt id='51'> +4.6169679e+02 </wgt>
<wgt id='52'> +4.6866443e+02 </wgt>
<wgt id='53'> +4.7690165e+02 </wgt>
<wgt id='54'> +5.0074550e+02 </wgt>
<wgt id='55'> +4.9255269e+02 </wgt>
<wgt id='56'> +4.4582409e+02 </wgt>
<wgt id='57'> +4.9817654e+02 </wgt>
<wgt id='58'> +4.5239731e+02 </wgt>
<wgt id='59'> +5.1394542e+02 </wgt>
<wgt id='60'> +4.8217868e+02 </wgt>
<wgt id='61'> +4.2560007e+02 </wgt>
<wgt id='62'> +4.6001064e+02 </wgt>
<wgt id='63'> +4.9416329e+02 </wgt>
<wgt id='64'> +4.7598042e+02 </wgt>
<wgt id='65'> +4.9483301e+02 </wgt>
<wgt id='66'> +4.7980879e+02 </wgt>
<wgt id='67'> +4.8383306e+02 </wgt>
<wgt id='68'> +5.5474386e+02 </wgt>
<wgt id='69'> +5.0072497e+02 </wgt>
<wgt id='70'> +4.9139112e+02 </wgt>
<wgt id='71'> +4.7023951e+02 </wgt>
<wgt id='72'> +4.5196588e+02 </wgt>
<wgt id='73'> +4.4962765e+02 </wgt>
<wgt id='74'> +5.2891058e+02 </wgt>
<wgt id='75'> +5.0446290e+02 </wgt>
<wgt id='76'> +4.8531110e+02 </wgt>
<wgt id='77'> +4.6671523e+02 </wgt>
<wgt id='78'> +4.3755775e+02 </wgt>
<wgt id='79'> +4.9336794e+02 </wgt>
<wgt id='80'> +4.4954764e+02 </wgt>
<wgt id='81'> +4.8200822e+02 </wgt>
<wgt id='82'> +4.6686646e+02 </wgt>
<wgt id='83'> +4.8236785e+02 </wgt>
<wgt id='84'> +4.9795495e+02 </wgt>
<wgt id='85'> +4.6479938e+02 </wgt>
<wgt id='86'> +4.9383069e+02 </wgt>
<wgt id='87'> +4.8162722e+02 </wgt>
<wgt id='88'> +4.7763013e+02 </wgt>
<wgt id='89'> +4.5500216e+02 </wgt>
<wgt id='90'> +4.7437290e+02 </wgt>
<wgt id='91'> +4.5984457e+02 </wgt>
<wgt id='92'> +4.4182658e+02 </wgt>
<wgt id='93'> +4.8297866e+02 </wgt>
<wgt id='94'> +4.5385471e+02 </wgt>
<wgt id='95'> +4.9156282e+02 </wgt>
<wgt id='96'> +5.1090526e+02 </wgt>
<wgt id='97'> +4.5742961e+02 </wgt>
<wgt id='98'> +4.9171598e+02 </wgt>
<wgt id='99'> +4.3160809e+02 </wgt>
<wgt id='100'> +4.0815851e+02 </wgt>
<wgt id='101'> +5.5006340e+02 </wgt>
<wgt id='102'> +5.2089928e+02 </wgt>
<wgt id='103'> +4.9363224e+02 </wgt>
<wgt id='104'> +5.0080698e+02 </wgt>
<wgt id='105'> +4.9455257e+02 </wgt>
<wgt id='106'> +4.4904063e+02 </wgt>
<wgt id='107'> +4.5653767e+02 </wgt>
<wgt id='108'> +4.3425972e+02 </wgt>
<wgt id='109'> +4.6345320e+02 </wgt>
<wgt id='110'> +4.6112772e+02 </wgt>
<wgt id='111'> +4.6900535e+02 </wgt>
<wgt id='112'> +4.7609988e+02 </wgt>
<wgt id='113'> +4.6951652e+02 </wgt>
<wgt id='114'> +4.8287454e+02 </wgt>
<wgt id='115'> +4.4806824e+02 </wgt>
<wgt id='116'> +5.1530858e+02 </wgt>
<wgt id='117'> +4.7236510e+02 </wgt>
<wgt id='118'> +5.0466457e+02 </wgt>
<wgt id='119'> +4.9453370e+02 </wgt>
<wgt id='120'> +4.7781099e+02 </wgt>
<wgt id='121'> +4.7518858e+02 </wgt>
<wgt id='122'> +4.7443703e+02 </wgt>
<wgt id='123'> +4.7557415e+02 </wgt>
<wgt id='124'> +5.4237511e+02 </wgt>
<wgt id='125'> +5.6929149e+02 </wgt>
<wgt id='126'> +4.8564568e+02 </wgt>
<wgt id='127'> +4.7999986e+02 </wgt>
<wgt id='128'> +4.4786732e+02 </wgt>
<wgt id='129'> +5.1889599e+02 </wgt>
<wgt id='130'> +4.6948865e+02 </wgt>
<wgt id='131'> +4.7430836e+02 </wgt>
<wgt id='132'> +5.1945452e+02 </wgt>
<wgt id='133'> +5.1111952e+02 </wgt>
<wgt id='134'> +4.8604384e+02 </wgt>
<wgt id='135'> +4.7491795e+02 </wgt>
<wgt id='136'> +5.3319129e+02 </wgt>
<wgt id='137'> +4.8018788e+02 </wgt>
<wgt id='138'> +4.7417027e+02 </wgt>
<wgt id='139'> +4.9659962e+02 </wgt>
<wgt id='140'> +4.8130338e+02 </wgt>
<wgt id='141'> +5.1453334e+02 </wgt>
<wgt id='142'> +4.0112415e+02 </wgt>
<wgt id='143'> +4.9418747e+02 </wgt>
<wgt id='144'> +4.5430433e+02 </wgt>
<wgt id='145'> +4.6206023e+02 </wgt>
</rwgt>
</event>
<event>
 8      1 +4.8159400e+02 1.78602600e+02 7.54677100e-03 1.16916200e-01
        3 -1    0    0  502    0 +0.0000000000e+00 +0.0000000000e+00 +7.0277046370e+01 7.0277046370e+01 0.0000000000e+00 0.0000e+00 1.0000e+00
       -3 -1    0    0    0  501 -0.0000000000e+00 -0.0000000000e+00 -5.4944708430e+02 5.4944708430e+02 0.0000000000e+00 0.0000e+00 -1.0000e+00
        6  2    1    2  502    0 +4.4010617518e+01 +1.2041654354e+01 -3.6716355924e+02 4.0766734496e+02 1.7117724444e+02 0.0000e+00 0.0000e+00
       -6  2    1    2    0  501 -4.4010617518e+01 -1.2041654354e+01 -1.1200647869e+02 2.1205678572e+02 1.7418580082e+02 0.0000e+00 0.0000e+00
        5  1    3    3  502    0 +6.0950661770e+01 -1.8612799444e+01 -2.6693397417e+02 2.7447633056e+02 4.7000000000e+00 0.0000e+00 -1.0000e+00
       24  1    3    3    0    0 -1.6940044252e+01 +3.0654453797e+01 -1.0022958508e+02 1.3319101440e+02 8.0419002446e+01 0.0000e+00 -1.0000e+00
       -5  1    4    4    0  501 +3.0517517775e+00 -5.2431440358e+01 -9.5609977169e+01 1.0918666064e+02 4.7000000000e+00 0.0000e+00 1.0000e+00
      -24  1    4    4    0    0 -4.7062369295e+01 +4.0389786004e+01 -1.6396501519e+01 1.0287012508e+02 8.0419002446e+01 0.0000e+00 1.0000e+00
<mgrwt>
<rscale>  2 0.17860257E+03</rscale>
<asrwt>0</asrwt>
<pdfrwt beam="1">  1        3 0.10811853E-01 0.17860257E+03</pdfrwt>
<pdfrwt beam="2">  1       -3 0.84530321E-01 0.17860257E+03</pdfrwt>
<totfact> 0.20632888E+02</totfact>
</mgrwt>
<rwgt>
<wgt id='1'> +5.4305199e+02 </wgt>
<wgt id='2'> +5.0886785e+02 </wgt>
<wgt id='3'> +4.9433312e+02 </wgt>
<wgt id='4'> +5.5752590e+02 </wgt>
<wgt id='5'> +4.7426204e+02 </wgt>
<wgt id='6'> +5.9307048e+02 </wgt>
<wgt id='7'> +5.4861535e+02 </wgt>
<wgt id='8'> +5.3028481e+02 </wgt>
<wgt id='9'> +6.1258254e+02 </wgt>
<wgt id='10'> +5.0517658e+02 </wgt>
<wgt id='11'> +6.3337900e+02 </wgt>
<wgt id='12'> +5.8029417e+02 </wgt>
<wgt id='13'> +5.5881399e+02 </wgt>
<wgt id='14'> +6.5713422e+02 </wgt>
<wgt id='15'> +5.2957817e+02 </wgt>
<wgt id='16'> +4.4097724e+02 </wgt>
<wgt id='17'> +4.2134759e+02 </wgt>
<wgt id='18'> +4.1272429e+02 </wgt>
<wgt id='19'> +4.4990430e+02 </wgt>
<wgt id='20'> +3.9949307e+02 </wgt>
<wgt id='21'> +4.5425891e+02 </wgt>
<wgt id='22'> +4.4274075e+02 </wgt>
<wgt id='23'> +4.9433312e+02 </wgt>
<wgt id='24'> +4.2553383e+02 </wgt>
<wgt id='25'> +5.1432593e+02 </wgt>
<wgt id='26'> +4.8048928e+02 </wgt>
<wgt id='27'> +4.6656009e+02 </wgt>
<wgt id='28'> +5.3028481e+02 </wgt>
<wgt id='29'> +4.4608843e+02 </wgt>
<wgt id='30'> +3.7041815e+02 </wgt>
<wgt id='31'> +3.5692675e+02 </wgt>
<wgt id='32'> +3.5073976e+02 </wgt>
<wgt id='33'> +3.7563016e+02 </wgt>
<wgt id='34'> +3.4107801e+02 </wgt>
<wgt id='35'> +4.0453598e+02 </wgt>
<wgt id='36'> +3.8480617e+02 </wgt>
<wgt id='37'> +3.7624823e+02 </wgt>
<wgt id='38'> +4.1272429e+02 </wgt>
<wgt id='39'> +3.6331101e+02 </wgt>
<wgt id='40'> +4.3203060e+02 </wgt>
<wgt id='41'> +4.0702612e+02 </wgt>
<wgt id='42'> +3.9649029e+02 </wgt>
<wgt id='43'> +4.4274075e+02 </wgt>
<wgt id='44'> +3.8086006e+02 </wgt>
<wgt id='45'> +4.8159400e+02 </wgt>
<wgt id='46'> +4.8588454e+02 </wgt>
<wgt id='47'> +4.4591057e+02 </wgt>
<wgt id='48'> +5.1690655e+02 </wgt>
<wgt id='49'> +5.1905432e+02 </wgt>
<wgt id='50'> +4.7274988e+02 </wgt>
<wgt id='51'> +4.6670483e+02 </wgt>
<wgt id='52'> +5.1508392e+02 </wgt>
<wgt id='53'> +4.2033870e+02 </wgt>
<wgt id='54'> +4.5714107e+02 </wgt>
<wgt id='55'> +4.9180940e+02 </wgt>
<wgt id='56'> +3.7153679e+02 </wgt>
<wgt id='57'> +6.1076077e+02 </wgt>
<wgt id='58'> +4.3554732e+02 </wgt>
<wgt id='59'> +4.8642830e+02 </wgt>
<wgt id='60'> +4.6745914e+02 </wgt>
<wgt id='61'> +5.1673464e+02 </wgt>
<wgt id='62'> +4.2333318e+02 </wgt>
<wgt id='63'> +4.6148627e+02 </wgt>
<wgt id='64'> +5.4036837e+02 </wgt>
<wgt id='65'> +5.2865933e+02 </wgt>
<wgt id='66'> +4.2886635e+02 </wgt>
<wgt id='67'> +3.8738752e+02 </wgt>
<wgt id='68'> +5.5095559e+02 </wgt>
<wgt id='69'> +5.6596041e+02 </wgt>
<wgt id='70'> +3.9142545e+02 </wgt>
<wgt id='71'> +3.7715201e+02 </wgt>
<wgt id='72'> +4.9849962e+02 </wgt>
<wgt id='73'> +4.6629458e+02 </wgt>
<wgt id='74'> +5.7945679e+02 </wgt>
<wgt id='75'> +5.2793178e+02 </wgt>
<wgt id='76'> +4.5369049e+02 </wgt>
<wgt id='77'> +5.4747916e+02 </wgt>
<wgt id='78'> +5.5104656e+02 </wgt>
<wgt id='79'> +3.9181925e+02 </wgt>
<wgt id='80'> +4.5814991e+02 </wgt>
<wgt id='81'> +4.6074461e+02 </wgt>
<wgt id='82'> +4.3238746e+02 </wgt>
<wgt id='83'> +5.9941583e+02 </wgt>
<wgt id='84'> +4.9054828e+02 </wgt>
<wgt id='85'> +5.2927211e+02 </wgt>
<wgt id='86'> +3.5404559e+02 </wgt>
<wgt id='87'> +4.8750943e+02 </wgt>
<wgt id='88'> +5.5225751e+02 </wgt>
<wgt id='89'> +4.5727338e+02 </wgt>
<wgt id='90'> +4.0358960e+02 </wgt>
<wgt id='91'> +5.7212200e+02 </wgt>
<wgt id='92'> +5.0605251e+02 </wgt>
<wgt id='93'> +4.9443997e+02 </wgt>
<wgt id='94'> +4.4796092e+02 </wgt>
<wgt id='95'> +5.5461829e+02 </wgt>
<wgt id='96'> +4.9763169e+02 </wgt>
<wgt id='97'> +4.2065523e+02 </wgt>
<wgt id='98'> +3.6971906e+02 </wgt>
<wgt id='99'> +4.5846569e+02 </wgt>
<wgt id='100'> +4.5259739e+02 </wgt>
<wgt id='101'> +4.9678405e+02 </wgt>
<wgt id='102'> +5.8590897e+02 </wgt>
<wgt id='103'> +5.7536138e+02 </wgt>
<wgt id='104'> +3.5660547e+02 </wgt>
<wgt id='105'> +4.2822694e+02 </wgt>
<wgt id='106'> +4.4881685e+02 </wgt>
<wgt id='107'> +4.6975477e+02 </wgt>
<wgt id='108'> +4.0805538e+02 </wgt>
<wgt id='109'> +4.2940466e+02 </wgt>
<wgt id='110'> +4.2496504e+02 </wgt>
<wgt id='111'> +4.7949201e+02 </wgt>
<wgt id='112'> +5.6054587e+02 </wgt>
<wgt id='113'> +4.8313185e+02 </wgt>
<wgt id='114'> +4.0395822e+02 </wgt>
<wgt id='115'> +4.3951422e+02 </wgt>
<wgt id='116'> +4.9135895e+02 </wgt>
<wgt id='117'> +5.7001696e+02 </wgt>
<wgt id='118'> +6.7122559e+02 </wgt>
<wgt id='119'> +4.3562629e+02 </wgt>
<wgt id='120'> +5.7621183e+02 </wgt>
<wgt id='121'> +4.8879059e+02 </wgt>
<wgt id='122'> +4.6103033e+02 </wgt>
<wgt id='123'> +3.9671535e+02 </wgt>
<wgt id='124'> +5.1912824e+02 </wgt>
<wgt id='125'> +5.3454099e+02 </wgt>
<wgt id='126'> +4.7779224e+02 </wgt>
<wgt id='127'> +5.0606346e+02 </wgt>
<wgt id='128'> +4.1935555e+02 </wgt>
<wgt id='129'> +5.1251300e+02 </wgt>
<wgt id='130'> +6.3592902e+02 </wgt>
<wgt id='131'> +4.9801153e+02 </wgt>
<wgt id='132'> +6.1449786e+02 </wgt>
<wgt id='133'> +4.2253480e+02 </wgt>
<wgt id='134'> +5.8465352e+02 </wgt>
<wgt id='135'> +5.5183422e+02 </wgt>
<wgt id='136'> +3.8378263e+02 </wgt>
<wgt id='137'> +3.7915291e+02 </wgt>
<wgt id='138'> +4.8757321e+02 </wgt>
<wgt id='139'> +4.3897536e+02 </wgt>
<wgt id='140'> +5.4865140e+02 </wgt>
<wgt id='141'> +4.9564157e+02 </wgt>
<wgt id='142'> +4.6521237e+02 </wgt>
<wgt id='143'> +4.2559470e+02 </wgt>
<wgt id='144'> +4.3936211e+02 </wgt>
<wgt id='145'> +4.7644318e+02 </wgt>
</rwgt>
</event>
<event>
 8      1 +4.8159400e+02 1.89967000e+02 7.54677100e-03 1.16007400e-01
       21 -1    0    0  501  502 +0.0000000000e+00 +0.0000000000e+00 +3.4264568679e+02 3.4264568679e+02 0.0000000000e+00 0.0000e+00 -1.0000e+00
       21 -1    0    0  502  503 -0.0000000000e+00 -0.0000000000e+00 -1.0491201094e+02 1.0491201094e+02 0.0000000000e+00 0.0000e+00 -1.0000e+00
       -6  2    1    2    0  503 +3.4921211992e+01 +6.9990228949e+01 +1.5686171700e+02 2.4109288600e+02 1.6553567056e+02 0.0000e+00 0.0000e+00
        6  2    1    2  501    0 -3.4921211992e+01 -6.9990228949e+01 +8.0871958852e+01 2.0646481173e+02 1.7311649708e+02 0.0000e+00 0.0000e+00
        5  1    4    4  501    0 -2.2656030682e+01 +2.9151369826e+01 -2.0953911489e+01 4.2711292368e+01 4.7000000000e+00 0.0000e+00 -1.0000e+00
       24  1    4    4    0    0 -1.2265181309e+01 -9.9141598775e+01 +1.0182587034e+02 1.6375351937e+02 8.0419002446e+01 0.0000e+00 -1.0000e+00
       -5  1    3    3    0  503 +4.7971018163e+01 -2.6839518130e+01 +6.1644632285e+01 8.2726833655e+01 4.7000000000e+00 0.0000e+00 1.0000e+00
      -24  1    3    3    0    0 -1.3049806171e+01 +9.6829747079e+01 +9.5217084712e+01 1.5836605235e+02 8.0419002446e+01 0.0000e+00 0.0000e+00
<mgrwt>
<rscale>  2 0.18822263E+03</rscale>
<asrwt>0</asrwt>
<pdfrwt beam="1">  1       21 0.52714721E-01 0.18996696E+03</pdfrwt>
<pdfrwt beam="2">  1       21 0.16140310E-01 0.18996696E+03</pdfrwt>
<totfact> 0.11717085E+05</totfact>
</mgrwt>
<rwgt>
<wgt id='1'> +6.1328733e+02 </wgt>
<wgt id='2'> +5.0913798e+02 </wgt>
<wgt id='3'> +4.9531744e+02 </wgt>
<wgt id='4'> +6.3167738e+02 </wgt>
<wgt id='5'> +4.8072372e+02 </wgt>
<wgt id='6'> +5.9162414e+02 </wgt>
<wgt id='7'> +4.8311387e+02 </wgt>
<wgt id='8'> +4.6927473e+02 </wgt>
<wgt id='9'> +6.1078646e+02 </wgt>
<wgt id='10'> +4.5493147e+02 </wgt>
<wgt id='11'> +5.5987088e+02 </wgt>
<wgt id='12'> +4.5660381e+02 </wgt>
<wgt id='13'> +4.4347162e+02 </wgt>
<wgt id='14'> +5.7867264e+02 </wgt>
<wgt id='15'> +4.2986918e+02 </wgt>
<wgt id='16'> +4.9922827e+02 </wgt>
<wgt id='17'> +4.2596150e+02 </wgt>
<wgt id='18'> +4.1566848e+02 </wgt>
<wgt id='19'> +5.1225894e+02 </wgt>
<wgt id='20'> +4.0453958e+02 </wgt>
<wgt id='21'> +4.0418888e+02 </wgt>
<wgt id='22'> +3.9381353e+02 </wgt>
<wgt id='23'> +4.9531744e+02 </wgt>
<wgt id='24'> +3.8283484e+02 </wgt>
<wgt id='25'> +4.5574621e+02 </wgt>
<wgt id='26'> +3.8200970e+02 </wgt>
<wgt id='27'> +3.7215966e+02 </wgt>
<wgt id='28'> +4.6927473e+02 </wgt>
<wgt id='29'> +3.6174437e+02 </wgt>
<wgt id='30'> +4.2002325e+02 </wgt>
<wgt id='31'> +3.6230466e+02 </wgt>
<wgt id='32'> +3.5408614e+02 </wgt>
<wgt id='33'> +4.2988572e+02 </wgt>
<wgt id='34'> +3.4516292e+02 </wgt>
<wgt id='35'> +4.0518674e+02 </wgt>
<wgt id='36'> +3.4378580e+02 </wgt>
<wgt id='37'> +3.3546907e+02 </wgt>
<wgt id='38'> +4.1566848e+02 </wgt>
<wgt id='39'> +3.2664391e+02 </wgt>
<wgt id='40'> +3.8343983e+02 </wgt>
<wgt id='41'> +3.2492113e+02 </wgt>
<wgt id='42'> +3.1702327e+02 </wgt>
<wgt id='43'> +3.9381353e+02 </wgt>
<wgt id='44'> +3.0864902e+02 </wgt>
<wgt id='45'> +4.8159400e+02 </wgt>
<wgt id='46'> +4.8055949e+02 </wgt>
<wgt id='47'> +4.9617144e+02 </wgt>
<wgt id='48'> +4.8164909e+02 </wgt>
<wgt id='49'> +4.8033901e+02 </wgt>
<wgt id='50'> +5.5352985e+02 </wgt>
<wgt id='51'> +4.7243083e+02 </wgt>
<wgt id='52'> +4.7918379e+02 </wgt>
<wgt id='53'> +4.8691149e+02 </wgt>
<wgt id='54'> +4.8438985e+02 </wgt>
<wgt id='55'> +4.3543363e+02 </wgt>
<wgt id='56'> +4.5049084e+02 </wgt>
<wgt id='57'> +4.7098037e+02 </wgt>
<wgt id='58'> +4.8619454e+02 </wgt>
<wgt id='59'> +4.7573622e+02 </wgt>
<wgt id='60'> +4.6358192e+02 </wgt>
<wgt id='61'> +4.6896717e+02 </wgt>
<wgt id='62'> +4.7485329e+02 </wgt>
<wgt id='63'> +4.8202547e+02 </wgt>
<wgt id='64'> +4.7834853e+02 </wgt>
<wgt id='65'> +5.6070644e+02 </wgt>
<wgt id='66'> +4.7023716e+02 </wgt>
<wgt id='67'> +4.8574986e+02 </wgt>
<wgt id='68'> +5.1386260e+02 </wgt>
<wgt id='69'> +4.6750336e+02 </wgt>
<wgt id='70'> +4.7450211e+02 </wgt>
<wgt id='71'> +4.9055673e+02 </wgt>
<wgt id='72'> +4.7318451e+02 </wgt>
<wgt id='73'> +4.7616091e+02 </wgt>
<wgt id='74'> +4.9426999e+02 </wgt>
<wgt id='75'> +4.9088926e+02 </wgt>
<wgt id='76'> +4.6963752e+02 </wgt>
<wgt id='77'> +4.6441752e+02 </wgt>
<wgt id='78'> +4.8203369e+02 </wgt>
<wgt id='79'> +4.6280750e+02 </wgt>
<wgt id='80'> +4.7784439e+02 </wgt>
<wgt id='81'> +4.7396631e+02 </wgt>
<wgt id='82'> +4.9336896e+02 </wgt>
<wgt id='83'> +4.8901939e+02 </wgt>
<wgt id='84'> +5.2440822e+02 </wgt>
<wgt id='85'> +5.0411170e+02 </wgt>
<wgt id='86'> +4.7734390e+02 </wgt>
<wgt id='87'> +4.8126507e+02 </wgt>
<wgt id='88'> +4.8773871e+02 </wgt>
<wgt id='89'> +4.9165282e+02 </wgt>
<wgt id='90'> +4.8719011e+02 </wgt>
<wgt id='91'> +5.1035419e+02 </wgt>
<wgt id='92'> +4.4907662e+02 </wgt>
<wgt id='93'> +4.7292377e+02 </wgt>
<wgt id='94'> +4.8010866e+02 </wgt>
<wgt id='95'> +4.6513392e+02 </wgt>
<wgt id='96'> +5.1512263e+02 </wgt>
<wgt id='97'> +4.8897642e+02 </wgt>
<wgt id='98'> +4.6065068e+02 </wgt>
<wgt id='99'> +4.6834191e+02 </wgt>
<wgt id='100'> +4.7970909e+02 </wgt>
<wgt id='101'> +5.0325479e+02 </wgt>
<wgt id='102'> +4.6688973e+02 </wgt>
<wgt id='103'> +5.1962465e+02 </wgt>
<wgt id='104'> +4.7941257e+02 </wgt>
<wgt id='105'> +5.0166083e+02 </wgt>
<wgt id='106'> +4.4780940e+02 </wgt>
<wgt id='107'> +4.7808508e+02 </wgt>
<wgt id='108'> +4.3588441e+02 </wgt>
<wgt id='109'> +4.5568124e+02 </wgt>
<wgt id='110'> +4.8327849e+02 </wgt>
<wgt id='111'> +4.7064290e+02 </wgt>
<wgt id='112'> +4.6136589e+02 </wgt>
<wgt id='113'> +4.4549715e+02 </wgt>
<wgt id='114'> +4.8258773e+02 </wgt>
<wgt id='115'> +4.8199347e+02 </wgt>
<wgt id='116'> +4.7906962e+02 </wgt>
<wgt id='117'> +4.8730263e+02 </wgt>
<wgt id='118'> +4.9137425e+02 </wgt>
<wgt id='119'> +4.6534160e+02 </wgt>
<wgt id='120'> +4.7902880e+02 </wgt>
<wgt id='121'> +4.7044651e+02 </wgt>
<wgt id='122'> +4.7618755e+02 </wgt>
<wgt id='123'> +4.8589834e+02 </wgt>
<wgt id='124'> +5.1110670e+02 </wgt>
<wgt id='125'> +5.1280194e+02 </wgt>
<wgt id='126'> +4.9740556e+02 </wgt>
<wgt id='127'> +4.9412842e+02 </wgt>
<wgt id='128'> +4.4832776e+02 </wgt>
<wgt id='129'> +5.4187822e+02 </wgt>
<wgt id='130'> +4.8279530e+02 </wgt>
<wgt id='131'> +5.1373006e+02 </wgt>
<wgt id='132'> +4.7829863e+02 </wgt>
<wgt id='133'> +4.7749363e+02 </wgt>
<wgt id='134'> +4.5534883e+02 </wgt>
<wgt id='135'> +4.9320902e+02 </wgt>
<wgt id='136'> +4.6454591e+02 </wgt>
<wgt id='137'> +4.5364060e+02 </wgt>
<wgt id='138'> +4.3669757e+02 </wgt>
<wgt id='139'> +4.9003141e+02 </wgt>
<wgt id='140'> +5.1065029e+02 </wgt>
<wgt id='141'> +4.8041555e+02 </wgt>
<wgt id='142'> +4.8497366e+02 </wgt>
<wgt id='143'> +4.7850146e+02 </wgt>
<wgt id='144'> +4.8281079e+02 </wgt>
<wgt id='145'> +4.8246787e+02 </wgt>
</rwgt>
</event>
<event>
 8      1 +4.8159400e+02 1.79512600e+02 7.54677100e-03 1.16835500e-01
       21 -1    0    0  501  502 +0.0000000000e+00 +0.0000000000e+00 +1.7854890202e+02 1.7854890202e+02 0.0000000000e+00 0.0000e+00 1.0000e+00
       21 -1    0    0  502  503 -0.0000000000e+00 -0.0000000000e+00 -2.1050716307e+02 2.1050716307e+02 0.0000000000e+00 0.0000e+00 1.0000e+00
       -6  2    1    2    0  503 -2.1264767389e+01 -4.9721640679e+01 -8.9835259646e+01 2.0044395954e+02 1.7083025247e+02 0.0000e+00 0.0000e+00
        6  2    1    2  501    0 +2.1264767389e+01 +4.9721640679e+01 +5.7876998604e+01 1.8861210555e+02 1.7117344276e+02 0.0000e+00 0.0000e+00
        5  1    4    4  501    0 -6.5471292204e+00 -1.5293504183e+00 +8.5195383166e+01 8.5589410131e+01 4.7000000000e+00 0.0000e+00 -1.0000e+00
       24  1    4    4    0    0 +2.7811896610e+01 +5.1250991097e+01 -2.7318384563e+01 1.0302269542e+02 8.0419002446e+01 0.0000e+00 0.0000e+00
       -5  1    3    3    0  503 +6.9007383680e+00 +1.3479522638e+01 +3.3918282693e+01 3.7441389149e+01 4.7000000000e+00 0.0000e+00 1.0000e+00
      -24  1    3    3    0    0 -2.8165505757e+01 -6.3201163317e+01 -1.2375354234e+02 1.6300257039e+02 8.0419002446e+01 0.0000e+00 1.0000e+00
<mgrwt>
<rscale>  2 0.17943076E+03</rscale>
<asrwt>0</asrwt>
<pdfrwt beam="1">  1       21 0.27469062E-01 0.17951262E+03</pdfrwt>
<pdfrwt beam="2">  1       21 0.32385717E-01 0.17951262E+03</pdfrwt>
<totfact> 0.11652139E+05</totfact>
</mgrwt>
<rwgt>
<wgt id='1'> +6.1352143e+02 </wgt>
<wgt id='2'> +5.9572523e+02 </wgt>
<wgt id='3'> +5.6205178e+02 </wgt>
<wgt id='4'> +7.2279294e+02 </wgt>
<wgt id='5'> +4.6918006e+02 </wgt>
<wgt id='6'> +5.9293566e+02 </wgt>
<wgt id='7'> +5.7445738e+02 </wgt>
<wgt id='8'> +5.3900579e+02 </wgt>
<wgt id='9'> +7.0337395e+02 </wgt>
<wgt id='10'> +4.4408616e+02 </wgt>
<wgt id='11'> +5.6169848e+02 </wgt>
<wgt id='12'> +5.4371077e+02 </wgt>
<wgt id='13'> +5.0996124e+02 </wgt>
<wgt id='14'> +6.7453328e+02 </wgt>
<wgt id='15'> +4.1978543e+02 </wgt>
<wgt id='16'> +4.9831417e+02 </wgt>
<wgt id='17'> +4.8573545e+02 </wgt>
<wgt id='18'> +4.6241819e+02 </wgt>
<wgt id='19'> +5.7756910e+02 </wgt>
<wgt id='20'> +3.9507226e+02 </wgt>
<wgt id='21'> +4.6839432e+02 </wgt>
<wgt id='22'> +4.4345751e+02 </wgt>
<wgt id='23'> +5.6205178e+02 </wgt>
<wgt id='24'> +3.7394199e+02 </wgt>
<wgt id='25'> +4.5622255e+02 </wgt>
<wgt id='26'> +4.4332450e+02 </wgt>
<wgt id='27'> +4.1956162e+02 </wgt>
<wgt id='28'> +5.3900579e+02 </wgt>
<wgt id='29'> +3.5347960e+02 </wgt>
<wgt id='30'> +4.1864314e+02 </wgt>
<wgt id='31'> +4.0906731e+02 </wgt>
<wgt id='32'> +3.9074543e+02 </wgt>
<wgt id='33'> +4.7518479e+02 </wgt>
<wgt id='34'> +3.3722134e+02 </wgt>
<wgt id='35'> +4.0459621e+02 </wgt>
<wgt id='36'> +3.9446329e+02 </wgt>
<wgt id='37'> +3.7472357e+02 </wgt>
<wgt id='38'> +4.6241819e+02 </wgt>
<wgt id='39'> +3.1918520e+02 </wgt>
<wgt id='40'> +3.8328117e+02 </wgt>
<wgt id='41'> +3.7335048e+02 </wgt>
<wgt id='42'> +3.5453144e+02 </wgt>
<wgt id='43'> +4.4345751e+02 </wgt>
<wgt id='44'> +3.0171914e+02 </wgt>
<wgt id='45'> +4.8159400e+02 </wgt>
<wgt id='46'> +4.7738498e+02 </wgt>
<wgt id='47'> +4.9668988e+02 </wgt>
<wgt id='48'> +4.8049442e+02 </wgt>
<wgt id='49'> +4.8114982e+02 </wgt>
<wgt id='50'> +5.5115780e+02 </wgt>
<wgt id='51'> +4.7233891e+02 </wgt>
<wgt id='52'> +4.7763092e+02 </wgt>
<wgt id='53'> +4.9114172e+02 </wgt>
<wgt id='54'> +4.8428177e+02 </wgt>
<wgt id='55'> +4.3003168e+02 </wgt>
<wgt id='56'> +4.5281076e+02 </wgt>
<wgt id='57'> +4.6809658e+02 </wgt>
<wgt id='58'> +4.8883782e+02 </wgt>
<wgt id='59'> +4.6907338e+02 </wgt>
<wgt id='60'> +4.5696069e+02 </wgt>
<wgt id='61'> +4.7906894e+02 </wgt>
<wgt id='62'> +4.7462418e+02 </wgt>
<wgt id='63'> +4.8200175e+02 </wgt>
<wgt id='64'> +4.8120307e+02 </wgt>
<wgt id='65'> +5.7041122e+02 </wgt>
<wgt id='66'> +4.6924351e+02 </wgt>
<wgt id='67'> +4.8600901e+02 </wgt>
<wgt id='68'> +5.1047737e+02 </wgt>
<wgt id='69'> +4.6477568e+02 </wgt>
<wgt id='70'> +4.7431629e+02 </wgt>
<wgt id='71'> +4.9099204e+02 </wgt>
<wgt id='72'> +4.7520113e+02 </wgt>
<wgt id='73'> +4.7740941e+02 </wgt>
<wgt id='74'> +4.9111123e+02 </wgt>
<wgt id='75'> +4.9125953e+02 </wgt>
<wgt id='76'> +4.6812547e+02 </wgt>
<wgt id='77'> +4.6099386e+02 </wgt>
<wgt id='78'> +4.8740491e+02 </wgt>
<wgt id='79'> +4.5878977e+02 </wgt>
<wgt id='80'> +4.7936269e+02 </wgt>
<wgt id='81'> +4.7429936e+02 </wgt>
<wgt id='82'> +4.9791495e+02 </wgt>
<wgt id='83'> +4.8986272e+02 </wgt>
<wgt id='84'> +5.2747127e+02 </wgt>
<wgt id='85'> +5.0763151e+02 </wgt>
<wgt id='86'> +4.7585619e+02 </wgt>
<wgt id='87'> +4.7996211e+02 </wgt>
<wgt id='88'> +4.8914643e+02 </wgt>
<wgt id='89'> +4.9114857e+02 </wgt>
<wgt id='90'> +4.8510115e+02 </wgt>
<wgt id='91'> +5.1446238e+02 </wgt>
<wgt id='92'> +4.5013531e+02 </wgt>
<wgt id='93'> +4.7082522e+02 </wgt>
<wgt id='94'> +4.8227059e+02 </wgt>
<wgt id='95'> +4.6304914e+02 </wgt>
<wgt id='96'> +5.1552445e+02 </wgt>
<wgt id='97'> +4.9200810e+02 </wgt>
<wgt id='98'> +4.5799478e+02 </wgt>
<wgt id='99'> +4.6962563e+02 </wgt>
<wgt id='100'> +4.8578146e+02 </wgt>
<wgt id='101'> +4.9658433e+02 </wgt>
<wgt id='102'> +4.5969870e+02 </wgt>
<wgt id='103'> +5.1974408e+02 </wgt>
<wgt id='104'> +4.7866006e+02 </wgt>
<wgt id='105'> +5.0350421e+02 </wgt>
<wgt id='106'> +4.4968648e+02 </wgt>
<wgt id='107'> +4.8318362e+02 </wgt>
<wgt id='108'> +4.3837799e+02 </wgt>
<wgt id='109'> +4.5645363e+02 </wgt>
<wgt id='110'> +4.8392476e+02 </wgt>
<wgt id='111'> +4.7144527e+02 </wgt>
<wgt id='112'> +4.6373421e+02 </wgt>
<wgt id='113'> +4.4516598e+02 </wgt>
<wgt id='114'> +4.8789651e+02 </wgt>
<wgt id='115'> +4.9147184e+02 </wgt>
<wgt id='116'> +4.7461484e+02 </wgt>
<wgt id='117'> +4.9130479e+02 </wgt>
<wgt id='118'> +4.8785653e+02 </wgt>
<wgt id='119'> +4.6461563e+02 </wgt>
<wgt id='120'> +4.8542523e+02 </wgt>
<wgt id='121'> +4.6985833e+02 </wgt>
<wgt id='122'> +4.7609456e+02 </wgt>
<wgt id='123'> +4.8660914e+02 </wgt>
<wgt id='124'> +5.0643883e+02 </wgt>
<wgt id='125'> +5.0820262e+02 </wgt>
<wgt id='126'> +4.9793071e+02 </wgt>
<wgt id='127'> +4.9380562e+02 </wgt>
<wgt id='128'> +4.5163900e+02 </wgt>
<wgt id='129'> +5.4331608e+02 </wgt>
<wgt id='130'> +4.8479579e+02 </wgt>
<wgt id='131'> +5.1677085e+02 </wgt>
<wgt id='132'> +4.7040041e+02 </wgt>
<wgt id='133'> +4.7319767e+02 </wgt>
<wgt id='134'> +4.5121079e+02 </wgt>
<wgt id='135'> +4.9424552e+02 </wgt>
<wgt id='136'> +4.5661730e+02 </wgt>
<wgt id='137'> +4.5160219e+02 </wgt>
<wgt id='138'> +4.3266349e+02 </wgt>
<wgt id='139'> +4.8825004e+02 </wgt>
<wgt id='140'> +5.1537157e+02 </wgt>
<wgt id='141'> +4.7923285e+02 </wgt>
<wgt id='142'> +4.9172901e+02 </wgt>
<wgt id='143'> +4.7410344e+02 </wgt>
<wgt id='144'> +4.8450466e+02 </wgt>
<wgt id='145'> +4.8262165e+02 </wgt>
</rwgt>
</event>
<event>
 8      1 +4.8159400e+02 1.93735000e+02 7.54677100e-03 1.15579900e-01
       21 -1    0    0  503  502 +0.0000000000e+00 +0.0000000000e+00 +1.3146444966e+02 1.3146444966e+02 0.0000000000e+00 0.0000e+00 -1.0000e+00
       21 -1    0    0  501  503 -0.0000000000e+00 -0.0000000000e+00 -3.2203420167e+02 3.2203420167e+02 0.0000000000e+00 0.0000e+00 -1.0000e+00
        6  2    1    2  501    0 -3.1474021096e+01 +7.9569534755e+01 -1.7676736122e+02 2.6225932015e+02 1.7381405624e+02 0.0000e+00 0.0000e+00
       -6  2    1    2    0  502 +3.1474021096e+01 -7.9569534755e+01 -1.3802390784e+01 1.9123933118e+02 1.7047008810e+02 0.0000e+00 0.0000e+00
        5  1    3    3  501    0 -6.8703626254e+00 +1.0466562698e+02 -8.3113943409e+01 1.3391083953e+02 4.7000000000e+00 0.0000e+00 -1.0000e+00
       24  1    3    3    0    0 -2.4603658471e+01 -2.5096092230e+01 -9.3653417813e+01 1.2834848062e+02 8.0419002446e+01 0.0000e+00 -1.0000e+00
       -5  1    4    4    0  502 +7.2046374845e+01 -6.1559844376e+01 -2.6492409298e+01 9.8510062016e+01 4.7000000000e+00 0.0000e+00 1.0000e+00
      -24  1    4    4    0    0 -4.0572353749e+01 -1.8009690379e+01 +1.2690018514e+01 9.2729269169e+01 8.0419002446e+01 0.0000e+00 1.0000e+00
<mgrwt>
<rscale>  2 0.19298202E+03</rscale>
<asrwt>0</asrwt>
<pdfrwt beam="1">  1       21 0.20225300E-01 0.19373500E+03</pdfrwt>
<pdfrwt beam="2">  1       21 0.49543723E-01 0.19373500E+03</pdfrwt>
<totfact> 0.87761345E+04</totfact>
</mgrwt>
<rwgt>
<wgt id='1'> +6.1603111e+02 </wgt>
<wgt id='2'> +5.0643532e+02 </wgt>
<wgt id='3'> +4.8455571e+02 </wgt>
<wgt id='4'> +6.1996900e+02 </wgt>
<wgt id='5'> +4.7125517e+02 </wgt>
<wgt id='6'> +5.9092448e+02 </wgt>
<wgt id='7'> +4.7793604e+02 </wgt>
<wgt id='8'> +4.5650615e+02 </wgt>
<wgt id='9'> +5.9503865e+02 </wgt>
<wgt id='10'> +4.4377445e+02 </wgt>
<wgt id='11'> +5.5661767e+02 </wgt>
<wgt id='12'> +4.4984702e+02 </wgt>
<wgt id='13'> +4.2964025e+02 </wgt>
<wgt id='14'> +5.6059354e+02 </wgt>
<wgt id='15'> +4.1764191e+02 </wgt>
<wgt id='16'> +5.0205550e+02 </wgt>
<wgt id='17'> +4.2441071e+02 </wgt>
<wgt id='18'> +4.0777352e+02 </wgt>
<wgt id='19'> +5.0485715e+02 </wgt>
<wgt id='20'> +3.9737925e+02 </wgt>
<wgt id='21'> +4.0052730e+02 </wgt>
<wgt id='22'> +3.8416866e+02 </wgt>
<wgt id='23'> +4.8455571e+02 </wgt>
<wgt id='24'> +3.7420652e+02 </wgt>
<wgt id='25'> +4.5363450e+02 </wgt>
<wgt id='26'> +3.7698771e+02 </wgt>
<wgt id='27'> +3.6155990e+02 </wgt>
<wgt id='28'> +4.5650615e+02 </wgt>
<wgt id='29'> +3.5217062e+02 </wgt>
<wgt id='30'> +4.2270159e+02 </wgt>
<wgt id='31'> +3.6127259e+02 </wgt>
<wgt id='32'> +3.4792718e+02 </wgt>
<wgt id='33'> +4.2485801e+02 </wgt>
<wgt id='34'> +3.3955501e+02 </wgt>
<wgt id='35'> +4.0547420e+02 </wgt>
<wgt id='36'> +3.4094224e+02 </wgt>
<wgt id='37'> +3.2778666e+02 </wgt>
<wgt id='38'> +4.0777352e+02 </wgt>
<wgt id='39'> +3.1975424e+02 </wgt>
<wgt id='40'> +3.8193392e+02 </wgt>
<wgt id='41'> +3.2090455e+02 </wgt>
<wgt id='42'> +3.0849605e+02 </wgt>
<wgt id='43'> +3.8416866e+02 </wgt>
<wgt id='44'> +3.0092488e+02 </wgt>
<wgt id='45'> +4.8159400e+02 </wgt>
<wgt id='46'> +4.8083501e+02 </wgt>
<wgt id='47'> +4.9746882e+02 </wgt>
<wgt id='48'> +4.8221408e+02 </wgt>
<wgt id='49'> +4.8050855e+02 </wgt>
<wgt id='50'> +5.5751607e+02 </wgt>
<wgt id='51'> +4.7235607e+02 </wgt>
<wgt id='52'> +4.7889685e+02 </wgt>
<wgt id='53'> +4.8745812e+02 </wgt>
<wgt id='54'> +4.8436872e+02 </wgt>
<wgt id='55'> +4.3259283e+02 </wgt>
<wgt id='56'> +4.4945055e+02 </wgt>
<wgt id='57'> +4.6968652e+02 </wgt>
<wgt id='58'> +4.8568925e+02 </wgt>
<wgt id='59'> +4.7460677e+02 </wgt>
<wgt id='60'> +4.6216679e+02 </wgt>
<wgt id='61'> +4.6981212e+02 </wgt>
<wgt id='62'> +4.7504338e+02 </wgt>
<wgt id='63'> +4.8199028e+02 </wgt>
<wgt id='64'> +4.7795706e+02 </wgt>
<wgt id='65'> +5.6520736e+02 </wgt>
<wgt id='66'> +4.7011164e+02 </wgt>
<wgt id='67'> +4.8585677e+02 </wgt>
<wgt id='68'> +5.1452630e+02 </wgt>
<wgt id='69'> +4.6840322e+02 </wgt>
<wgt id='70'> +4.7401165e+02 </wgt>
<wgt id='71'> +4.9069911e+02 </wgt>
<wgt id='72'> +4.7090701e+02 </wgt>
<wgt id='73'> +4.7578838e+02 </wgt>
<wgt id='74'> +4.9478991e+02 </wgt>
<wgt id='75'> +4.9158117e+02 </wgt>
<wgt id='76'> +4.6852136e+02 </wgt>
<wgt id='77'> +4.6388899e+02 </wgt>
<wgt id='78'> +4.8240447e+02 </wgt>
<wgt id='79'> +4.6201056e+02 </wgt>
<wgt id='80'> +4.7778994e+02 </wgt>
<wgt id='81'> +4.7337074e+02 </wgt>
<wgt id='82'> +4.9430482e+02 </wgt>
<wgt id='83'> +4.9035108e+02 </wgt>
<wgt id='84'> +5.2692390e+02 </wgt>
<wgt id='85'> +5.0569423e+02 </wgt>
<wgt id='86'> +4.7775885e+02 </wgt>
<wgt id='87'> +4.8131240e+02 </wgt>
<wgt id='88'> +4.8894726e+02 </wgt>
<wgt id='89'> +4.9224074e+02 </wgt>
<wgt id='90'> +4.8693610e+02 </wgt>
<wgt id='91'> +5.1171144e+02 </wgt>
<wgt id='92'> +4.4625803e+02 </wgt>
<wgt id='93'> +4.7291816e+02 </wgt>
<wgt id='94'> +4.7977015e+02 </wgt>
<wgt id='95'> +4.6344790e+02 </wgt>
<wgt id='96'> +5.1769191e+02 </wgt>
<wgt id='97'> +4.8928701e+02 </wgt>
<wgt id='98'> +4.5985469e+02 </wgt>
<wgt id='99'> +4.6805544e+02 </wgt>
<wgt id='100'> +4.7927732e+02 </wgt>
<wgt id='101'> +5.0390246e+02 </wgt>
<wgt id='102'> +4.6665694e+02 </wgt>
<wgt id='103'> +5.2125220e+02 </wgt>
<wgt id='104'> +4.8002833e+02 </wgt>
<wgt id='105'> +5.0132304e+02 </wgt>
<wgt id='106'> +4.4563941e+02 </wgt>
<wgt id='107'> +4.7731642e+02 </wgt>
<wgt id='108'> +4.3399966e+02 </wgt>
<wgt id='109'> +4.5416695e+02 </wgt>
<wgt id='110'> +4.8292804e+02 </wgt>
<wgt id='111'> +4.6995888e+02 </wgt>
<wgt id='112'> +4.6066550e+02 </wgt>
<wgt id='113'> +4.4383434e+02 </wgt>
<wgt id='114'> +4.8201153e+02 </wgt>
<wgt id='115'> +4.8308830e+02 </wgt>
<wgt id='116'> +4.7968253e+02 </wgt>
<wgt id='117'> +4.8800926e+02 </wgt>
<wgt id='118'> +4.9217802e+02 </wgt>
<wgt id='119'> +4.6409091e+02 </wgt>
<wgt id='120'> +4.7987966e+02 </wgt>
<wgt id='121'> +4.6922061e+02 </wgt>
<wgt id='122'> +4.7578880e+02 </wgt>
<wgt id='123'> +4.8689294e+02 </wgt>
<wgt id='124'> +5.1216446e+02 </wgt>
<wgt id='125'> +5.1359968e+02 </wgt>
<wgt id='126'> +4.9874197e+02 </wgt>
<wgt id='127'> +4.9491548e+02 </wgt>
<wgt id='128'> +4.4807313e+02 </wgt>
<wgt id='129'> +5.4364944e+02 </wgt>
<wgt id='130'> +4.8423448e+02 </wgt>
<wgt id='131'> +5.1500539e+02 </wgt>
<wgt id='132'> +4.7671723e+02 </wgt>
<wgt id='133'> +4.7748322e+02 </wgt>
<wgt id='134'> +4.5384461e+02 </wgt>
<wgt id='135'> +4.9365808e+02 </wgt>
<wgt id='136'> +4.6250958e+02 </wgt>
<wgt id='137'> +4.5342181e+02 </wgt>
<wgt id='138'> +4.3695962e+02 </wgt>
<wgt id='139'> +4.9022963e+02 </wgt>
<wgt id='140'> +5.1168505e+02 </wgt>
<wgt id='141'> +4.8053853e+02 </wgt>
<wgt id='142'> +4.8547762e+02 </wgt>
<wgt id='143'> +4.7755957e+02 </wgt>
<wgt id='144'> +4.8216582e+02 </wgt>
<wgt id='145'> +4.8263549e+02 </wgt>
</rwgt>
</event>
<event>
 8      1 +4.8159400e+02 1.90488500e+02 7.54677100e-03 1.15802100e-01
       -2 -1    0    0    0  501 -0.0000000000e+00 +0.0000000000e+00 +2.1458725138e+01 2.1458725138e+01 0.0000000000e+00 0.0000e+00 -1.0000e+00
        2 -1    0    0  502    0 +0.0000000000e+00 -0.0000000000e+00 -2.1697964065e+03 2.1697964065e+03 0.0000000000e+00 0.0000e+00 1.0000e+00
        6  2    1    2  502    0 +7.5833068612e+01 -2.0666826430e+01 -1.5901511106e+03 1.6015551042e+03 1.7384022887e+02 0.0000e+00 0.0000e+00
       -6  2    1    2    0  501 -7.5833068612e+01 +2.0666826430e+01 -5.5818657075e+02 5.8970002744e+02 1.7319382955e+02 0.0000e+00 0.0000e+00
        5  1    3    3  502    0 -3.0068475272e+01 +3.5204572084e+01 -3.8033016234e+02 3.8316654015e+02 4.7000000000e+00 0.0000e+00 -1.0000e+00
       24  1    3    3    0    0 +1.0590154388e+02 -5.5871398514e+01 -1.2098209483e+03 1.2183885640e+03 8.0419002446e+01 0.0000e+00 0.0000e+00
       -5  1    4    4    0  501 -8.1080787739e+01 +5.9349649057e+01 -3.0934134801e+02 3.2528546628e+02 4.7000000000e+00 0.0000e+00 1.0000e+00
      -24  1    4    4    0    0 +5.2477191266e+00 -3.8682822626e+01 -2.4884522274e+02 2.6441456117e+02 8.0419002446e+01 0.0000e+00 0.0000e+00
<mgrwt>
<rscale>  2 0.19048848E+03</rscale>
<asrwt>0</asrwt>
<pdfrwt beam="2">  1        2 0.33381485E+00 0.19048848E+03</pdfrwt>
<pdfrwt beam="1">  1       -2 0.33013421E-02 0.19048848E+03</pdfrwt>
<totfact> 0.22286657E+03</totfact>
</mgrwt>
<rwgt>
<wgt id='1'> +5.9551413e+02 </wgt>
<wgt id='2'> +5.1240993e+02 </wgt>
<wgt id='3'> +4.8167268e+02 </wgt>
<wgt id='4'> +5.9562482e+02 </wgt>
<wgt id='5'> +4.6540155e+02 </wgt>
<wgt id='6'> +5.9129305e+02 </wgt>
<wgt id='7'> +5.0679868e+02 </wgt>
<wgt id='8'> +4.7563882e+02 </wgt>
<wgt id='9'> +5.9140593e+02 </wgt>
<wgt id='10'> +4.5916693e+02 </wgt>
<wgt id='11'> +5.8388355e+02 </wgt>
<wgt id='12'> +4.9888980e+02 </wgt>
<wgt id='13'> +4.6766378e+02 </wgt>
<wgt id='14'> +5.8399746e+02 </wgt>
<wgt id='15'> +4.5117802e+02 </wgt>
<wgt id='16'> +4.8503197e+02 </wgt>
<wgt id='17'> +4.2793928e+02 </wgt>
<wgt id='18'> +4.0538562e+02 </wgt>
<wgt id='19'> +4.8510877e+02 </wgt>
<wgt id='20'> +3.9280930e+02 </wgt>
<wgt id='21'> +4.2325305e+02 </wgt>
<wgt id='22'> +4.0030741e+02 </wgt>
<wgt id='23'> +4.8167268e+02 </wgt>
<wgt id='24'> +3.8754714e+02 </wgt>
<wgt id='25'> +4.7555914e+02 </wgt>
<wgt id='26'> +4.1664794e+02 </wgt>
<wgt id='27'> +3.9359544e+02 </wgt>
<wgt id='28'> +4.7563882e+02 </wgt>
<wgt id='29'> +3.8080433e+02 </wgt>
<wgt id='30'> +4.0821962e+02 </wgt>
<wgt id='31'> +3.6371176e+02 </wgt>
<wgt id='32'> +3.4591052e+02 </wgt>
<wgt id='33'> +4.0827751e+02 </wgt>
<wgt id='34'> +3.3593381e+02 </wgt>
<wgt id='35'> +4.0532610e+02 </wgt>
<wgt id='36'> +3.5972886e+02 </wgt>
<wgt id='37'> +3.4157734e+02 </wgt>
<wgt id='38'> +4.0538562e+02 </wgt>
<wgt id='39'> +3.3143357e+02 </wgt>
<wgt id='40'> +4.0024696e+02 </wgt>
<wgt id='41'> +3.5411508e+02 </wgt>
<wgt id='42'> +3.3585011e+02 </wgt>
<wgt id='43'> +4.0030741e+02 </wgt>
<wgt id='44'> +3.2566705e+02 </wgt>
<wgt id='45'> +4.8159400e+02 </wgt>
<wgt id='46'> +4.8980183e+02 </wgt>
<wgt id='47'> +4.6421280e+02 </wgt>
<wgt id='48'> +4.6577475e+02 </wgt>
<wgt id='49'> +4.7303966e+02 </wgt>
<wgt id='50'> +4.2481678e+02 </wgt>
<wgt id='51'> +4.6430789e+02 </wgt>
<wgt id='52'> +4.7263774e+02 </wgt>
<wgt id='53'> +4.9894575e+02 </wgt>
<wgt id='54'> +4.7635649e+02 </wgt>
<wgt id='55'> +4.5703579e+02 </wgt>
<wgt id='56'> +5.0506179e+02 </wgt>
<wgt id='57'> +4.6155201e+02 </wgt>
<wgt id='58'> +5.1935134e+02 </wgt>
<wgt id='59'> +4.3821632e+02 </wgt>
<wgt id='60'> +5.0093754e+02 </wgt>
<wgt id='61'> +5.2737224e+02 </wgt>
<wgt id='62'> +4.9089149e+02 </wgt>
<wgt id='63'> +4.8437038e+02 </wgt>
<wgt id='64'> +4.7413746e+02 </wgt>
<wgt id='65'> +4.6831799e+02 </wgt>
<wgt id='66'> +4.7975732e+02 </wgt>
<wgt id='67'> +4.9427523e+02 </wgt>
<wgt id='68'> +4.2127752e+02 </wgt>
<wgt id='69'> +4.6084388e+02 </wgt>
<wgt id='70'> +4.8327408e+02 </wgt>
<wgt id='71'> +4.8886590e+02 </wgt>
<wgt id='72'> +5.1549853e+02 </wgt>
<wgt id='73'> +5.0707096e+02 </wgt>
<wgt id='74'> +4.2972889e+02 </wgt>
<wgt id='75'> +4.5781515e+02 </wgt>
<wgt id='76'> +5.0775170e+02 </wgt>
<wgt id='77'> +4.8512149e+02 </wgt>
<wgt id='78'> +5.1171568e+02 </wgt>
<wgt id='79'> +4.8501111e+02 </wgt>
<wgt id='80'> +5.2702822e+02 </wgt>
<wgt id='81'> +4.9491886e+02 </wgt>
<wgt id='82'> +4.8116254e+02 </wgt>
<wgt id='83'> +4.7855610e+02 </wgt>
<wgt id='84'> +4.8724745e+02 </wgt>
<wgt id='85'> +4.7956399e+02 </wgt>
<wgt id='86'> +4.8136740e+02 </wgt>
<wgt id='87'> +4.8701151e+02 </wgt>
<wgt id='88'> +4.8279377e+02 </wgt>
<wgt id='89'> +5.0120771e+02 </wgt>
<wgt id='90'> +5.1314534e+02 </wgt>
<wgt id='91'> +4.4537672e+02 </wgt>
<wgt id='92'> +5.2157667e+02 </wgt>
<wgt id='93'> +4.7065381e+02 </wgt>
<wgt id='94'> +4.9563309e+02 </wgt>
<wgt id='95'> +4.7929831e+02 </wgt>
<wgt id='96'> +4.6299541e+02 </wgt>
<wgt id='97'> +5.0741967e+02 </wgt>
<wgt id='98'> +4.9107838e+02 </wgt>
<wgt id='99'> +5.2126453e+02 </wgt>
<wgt id='100'> +4.9782453e+02 </wgt>
<wgt id='101'> +4.1974258e+02 </wgt>
<wgt id='102'> +4.5532940e+02 </wgt>
<wgt id='103'> +4.6710452e+02 </wgt>
<wgt id='104'> +4.6512346e+02 </wgt>
<wgt id='105'> +4.8430399e+02 </wgt>
<wgt id='106'> +5.3013354e+02 </wgt>
<wgt id='107'> +4.7808526e+02 </wgt>
<wgt id='108'> +5.2687607e+02 </wgt>
<wgt id='109'> +4.8516320e+02 </wgt>
<wgt id='110'> +5.0979403e+02 </wgt>
<wgt id='111'> +5.0697665e+02 </wgt>
<wgt id='112'> +4.9279660e+02 </wgt>
<wgt id='113'> +4.9164223e+02 </wgt>
<wgt id='114'> +4.7701638e+02 </wgt>
<wgt id='115'> +4.9437664e+02 </wgt>
<wgt id='116'> +4.3530008e+02 </wgt>
<wgt id='117'> +4.7204984e+02 </wgt>
<wgt id='118'> +4.6457843e+02 </wgt>
<wgt id='119'> +4.9102549e+02 </wgt>
<wgt id='120'> +4.8989248e+02 </wgt>
<wgt id='121'> +4.8267803e+02 </wgt>
<wgt id='122'> +4.9810500e+02 </wgt>
<wgt id='123'> +5.1099649e+02 </wgt>
<wgt id='124'> +4.3854636e+02 </wgt>
<wgt id='125'> +4.0310403e+02 </wgt>
<wgt id='126'> +4.8637495e+02 </wgt>
<wgt id='127'> +4.7524800e+02 </wgt>
<wgt id='128'> +4.7582752e+02 </wgt>
<wgt id='129'> +4.4661258e+02 </wgt>
<wgt id='130'> +4.7361730e+02 </wgt>
<wgt id='131'> +4.8056098e+02 </wgt>
<wgt id='132'> +4.5558527e+02 </wgt>
<wgt id='133'> +4.7250108e+02 </wgt>
<wgt id='134'> +4.7231159e+02 </wgt>
<wgt id='135'> +4.6072993e+02 </wgt>
<wgt id='136'> +4.7159415e+02 </wgt>
<wgt id='137'> +5.0250308e+02 </wgt>
<wgt id='138'> +4.8954724e+02 </wgt>
<wgt id='139'> +4.7598954e+02 </wgt>
<wgt id='140'> +4.7877005e+02 </wgt>
<wgt id='141'> +4.5548644e+02 </wgt>
<wgt id='142'> +5.2692572e+02 </wgt>
<wgt id='143'> +4.9417945e+02 </wgt>
<wgt id='144'> +5.1280846e+02 </wgt>
<wgt id='145'> +5.1207463e+02 </wgt>
</rwgt>
</event>
<event>
 8      1 +4.8159400e+02 1.79023600e+02 7.54677100e-03 1.16898800e-01
       21 -1    0    0  501  502 +0.0000000000e+00 +0.0000000000e+00 +1.0898248604e+02 1.0898248604e+02 0.0000000000e+00 0.0000e+00 1.0000e+00
       21 -1    0    0  502  503 -0.0000000000e+00 -0.0000000000e+00 -4.7475107091e+02 4.7475107091e+02 0.0000000000e+00 0.0000e+00 1.0000e+00
       -6  2    1    2    0  503 -4.0117333373e+01 +2.1877669130e+01 -3.6342084827e+02 4.0469453900e+02 1.7208987216e+02 0.0000e+00 0.0000e+00
        6  2    1    2  501    0 +4.0117333373e+01 -2.1877669130e+01 -2.3477366030e+00 1.7903901794e+02 1.7309368918e+02 0.0000e+00 0.0000e+00
        5  1    4    4  501    0 +7.4001923253e+01 +2.3536663471e-01 +3.4476538002e+01 8.1774456374e+01 4.7000000000e+00 0.0000e+00 -1.0000e+00
       24  1    4    4    0    0 -3.3884589880e+01 -2.2113035765e+01 -3.6824274605e+01 9.7264561566e+01 8.0419002446e+01 0.0000e+00 0.0000e+00
       -5  1    3    3    0  503 -8.1578783382e+01 +1.9552157965e+01 -2.1525689014e+02 2.3107358899e+02 4.7000000000e+00 0.0000e+00 1.0000e+00
      -24  1    3    3    0    0 +4.1461450009e+01 +2.3255111646e+00 -1.4816395813e+02 1.7362095001e+02 8.0419002446e+01 0.0000e+00 1.0000e+00
<mgrwt>
<rscale>  2 0.17878053E+03</rscale>
<asrwt>0</asrwt>
<pdfrwt beam="1">  1       21 0.16766536E-01 0.17902362E+03</pdfrwt>
<pdfrwt beam="2">  1       21 0.73038628E-01 0.17902362E+03</pdfrwt>
<totfact> 0.54318359E+04</totfact>
</mgrwt>
<rwgt>
<wgt id='1'> +6.2301732e+02 </wgt>
<wgt id='2'> +5.2866364e+02 </wgt>
<wgt id='3'> +4.9114934e+02 </wgt>
<wgt id='4'> +6.3621163e+02 </wgt>
<wgt id='5'> +4.4208053e+02 </wgt>
<wgt id='6'> +5.9304160e+02 </wgt>
<wgt id='7'> +4.9687559e+02 </wgt>
<wgt id='8'> +4.5932672e+02 </wgt>
<wgt id='9'> +6.0630113e+02 </wgt>
<wgt id='10'> +4.1277922e+02 </wgt>
<wgt id='11'> +5.5419677e+02 </wgt>
<wgt id='12'> +4.6392262e+02 </wgt>
<wgt id='13'> +4.2887375e+02 </wgt>
<wgt id='14'> +5.6701758e+02 </wgt>
<wgt id='15'> +3.8547488e+02 </wgt>
<wgt id='16'> +5.0593651e+02 </wgt>
<wgt id='17'> +4.3917376e+02 </wgt>
<wgt id='18'> +4.1181026e+02 </wgt>
<wgt id='19'> +5.1537908e+02 </wgt>
<wgt id='20'> +3.7349562e+02 </wgt>
<wgt id='21'> +4.1276665e+02 </wgt>
<wgt id='22'> +3.8512818e+02 </wgt>
<wgt id='23'> +4.9114934e+02 </wgt>
<wgt id='24'> +3.4874016e+02 </wgt>
<wgt id='25'> +4.5004910e+02 </wgt>
<wgt id='26'> +3.8539182e+02 </wgt>
<wgt id='27'> +3.5959452e+02 </wgt>
<wgt id='28'> +4.5932672e+02 </wgt>
<wgt id='29'> +3.2567184e+02 </wgt>
<wgt id='30'> +4.2499721e+02 </wgt>
<wgt id='31'> +3.7249680e+02 </wgt>
<wgt id='32'> +3.5063738e+02 </wgt>
<wgt id='33'> +4.3212598e+02 </wgt>
<wgt id='34'> +3.1971084e+02 </wgt>
<wgt id='35'> +4.0454899e+02 </wgt>
<wgt id='36'> +3.5009892e+02 </wgt>
<wgt id='37'> +3.2791883e+02 </wgt>
<wgt id='38'> +4.1181026e+02 </wgt>
<wgt id='39'> +2.9852026e+02 </wgt>
<wgt id='40'> +3.7805062e+02 </wgt>
<wgt id='41'> +3.2688023e+02 </wgt>
<wgt id='42'> +3.0617810e+02 </wgt>
<wgt id='43'> +3.8512818e+02 </wgt>
<wgt id='44'> +2.7877387e+02 </wgt>
<wgt id='45'> +4.8159400e+02 </wgt>
<wgt id='46'> +4.8592996e+02 </wgt>
<wgt id='47'> +4.9772698e+02 </wgt>
<wgt id='48'> +4.8422417e+02 </wgt>
<wgt id='49'> +4.7838710e+02 </wgt>
<wgt id='50'> +5.6662935e+02 </wgt>
<wgt id='51'> +4.7156904e+02 </wgt>
<wgt id='52'> +4.8043724e+02 </wgt>
<wgt id='53'> +4.8199768e+02 </wgt>
<wgt id='54'> +4.8583747e+02 </wgt>
<wgt id='55'> +4.3999719e+02 </wgt>
<wgt id='56'> +4.4413644e+02 </wgt>
<wgt id='57'> +4.7448760e+02 </wgt>
<wgt id='58'> +4.8015790e+02 </wgt>
<wgt id='59'> +4.8488538e+02 </wgt>
<wgt id='60'> +4.7026208e+02 </wgt>
<wgt id='61'> +4.4814330e+02 </wgt>
<wgt id='62'> +4.7454399e+02 </wgt>
<wgt id='63'> +4.8228766e+02 </wgt>
<wgt id='64'> +4.7450267e+02 </wgt>
<wgt id='65'> +5.5494877e+02 </wgt>
<wgt id='66'> +4.7113814e+02 </wgt>
<wgt id='67'> +4.8535888e+02 </wgt>
<wgt id='68'> +5.2201124e+02 </wgt>
<wgt id='69'> +4.7367699e+02 </wgt>
<wgt id='70'> +4.7396629e+02 </wgt>
<wgt id='71'> +4.8954076e+02 </wgt>
<wgt id='72'> +4.6660276e+02 </wgt>
<wgt id='73'> +4.7234805e+02 </wgt>
<wgt id='74'> +5.0108088e+02 </wgt>
<wgt id='75'> +4.9210882e+02 </wgt>
<wgt id='76'> +4.7062520e+02 </wgt>
<wgt id='77'> +4.6780448e+02 </wgt>
<wgt id='78'> +4.7345126e+02 </wgt>
<wgt id='79'> +4.6746705e+02 </wgt>
<wgt id='80'> +4.7399391e+02 </wgt>
<wgt id='81'> +4.7243071e+02 </wgt>
<wgt id='82'> +4.8655541e+02 </wgt>
<wgt id='83'> +4.8984906e+02 </wgt>
<wgt id='84'> +5.2430930e+02 </wgt>
<wgt id='85'> +5.0066638e+02 </wgt>
<wgt id='86'> +4.8043448e+02 </wgt>
<wgt id='87'> +4.8318423e+02 </wgt>
<wgt id='88'> +4.8710153e+02 </wgt>
<wgt id='89'> +4.9204689e+02 </wgt>
<wgt id='90'> +4.8946229e+02 </wgt>
<wgt id='91'> +5.0529671e+02 </wgt>
<wgt id='92'> +4.4208211e+02 </wgt>
<wgt id='93'> +4.7579625e+02 </wgt>
<wgt id='94'> +4.7524881e+02 </wgt>
<wgt id='95'> +4.6712376e+02 </wgt>
<wgt id='96'> +5.1855609e+02 </wgt>
<wgt id='97'> +4.8422557e+02 </wgt>
<wgt id='98'> +4.6362086e+02 </wgt>
<wgt id='99'> +4.6393966e+02 </wgt>
<wgt id='100'> +4.6716372e+02 </wgt>
<wgt id='101'> +5.1616521e+02 </wgt>
<wgt id='102'> +4.7840715e+02 </wgt>
<wgt id='103'> +5.2198322e+02 </wgt>
<wgt id='104'> +4.8232205e+02 </wgt>
<wgt id='105'> +4.9930265e+02 </wgt>
<wgt id='106'> +4.4143897e+02 </wgt>
<wgt id='107'> +4.6888220e+02 </wgt>
<wgt id='108'> +4.2842473e+02 </wgt>
<wgt id='109'> +4.5255613e+02 </wgt>
<wgt id='110'> +4.8090999e+02 </wgt>
<wgt id='111'> +4.6869482e+02 </wgt>
<wgt id='112'> +4.5717070e+02 </wgt>
<wgt id='113'> +4.4347231e+02 </wgt>
<wgt id='114'> +4.7595076e+02 </wgt>
<wgt id='115'> +4.7078086e+02 </wgt>
<wgt id='116'> +4.8766499e+02 </wgt>
<wgt id='117'> +4.8283886e+02 </wgt>
<wgt id='118'> +4.9839195e+02 </wgt>
<wgt id='119'> +4.6538280e+02 </wgt>
<wgt id='120'> +4.7394644e+02 </wgt>
<wgt id='121'> +4.6998367e+02 </wgt>
<wgt id='122'> +4.7600156e+02 </wgt>
<wgt id='123'> +4.8642082e+02 </wgt>
<wgt id='124'> +5.2158848e+02 </wgt>
<wgt id='125'> +5.2368329e+02 </wgt>
<wgt id='126'> +4.9863822e+02 </wgt>
<wgt id='127'> +4.9553126e+02 </wgt>
<wgt id='128'> +4.4246628e+02 </wgt>
<wgt id='129'> +5.4355829e+02 </wgt>
<wgt id='130'> +4.8107509e+02 </wgt>
<wgt id='131'> +5.1054091e+02 </wgt>
<wgt id='132'> +4.8866217e+02 </wgt>
<wgt id='133'> +4.8476460e+02 </wgt>
<wgt id='134'> +4.5914040e+02 </wgt>
<wgt id='135'> +4.9201976e+02 </wgt>
<wgt id='136'> +4.7564235e+02 </wgt>
<wgt id='137'> +4.5624744e+02 </wgt>
<wgt id='138'> +4.4291097e+02 </wgt>
<wgt id='139'> +4.9324009e+02 </wgt>
<wgt id='140'> +5.0545648e+02 </wgt>
<wgt id='141'> +4.8353687e+02 </wgt>
<wgt id='142'> +4.7198105e+02 </wgt>
<wgt id='143'> +4.8345125e+02 </wgt>
<wgt id='144'> +4.7803733e+02 </wgt>
<wgt id='145'> +4.8159473e+02 </wgt>
</rwgt>
</event>
<event>
 8      1 +4.8159400e+02 2.23941000e+02 7.54677100e-03 1.13125700e-01
       21 -1    0    0  503  502 +0.0000000000e+00 +0.0000000000e+00 +5.8293982768e+02 5.8293982768e+02 0.0000000000e+00 0.0000e+00 -1.0000e+00
       21 -1    0    0  501  503 -0.0000000000e+00 -0.0000000000e+00 -8.5444913690e+01 8.5444913690e+01 0.0000000000e+00 0.0000e+00 1.0000e+00
        6  2    1    2  501    0 -1.3317868219e+02 -4.6171396964e+01 +2.4846196090e+02 3.3347131624e+02 1.7205061305e+02 0.0000e+00 0.0000e+00
       -6  2    1    2    0  502 +1.3317868219e+02 +4.6171396964e+01 +2.4903295309e+02 3.3491342513e+02 1.7401503189e+02 0.0000e+00 0.0000e+00
        5  1    3    3  501    0 -9.0199891811e+01 +3.3593260084e+01 +7.6095004498e+01 1.2278871005e+02 4.7000000000e+00 0.0000e+00 -1.0000e+00
       24  1    3    3    0    0 -4.2978790379e+01 -7.9764657048e+01 +1.7236695641e+02 2.1068260619e+02 8.0419002446e+01 0.0000e+00 0.0000e+00
       -5  1    4    4    0  502 +1.1069545275e+02 +5.8759693483e+01 +2.0332143683e+02 2.3888884761e+02 4.7000000000e+00 0.0000e+00 1.0000e+00
      -24  1    4    4    0    0 +2.2483229439e+01 -1.2588296520e+01 +4.5711516260e+01 9.6024577523e+01 8.0419002446e+01 0.0000e+00 0.0000e+00
<mgrwt>
<rscale>  2 0.22355931E+03</rscale>
<asrwt>0</asrwt>
<pdfrwt beam="1">  1       21 0.89683048E-01 0.22394104E+03</pdfrwt>
<pdfrwt beam="2">  1       21 0.13145372E-01 0.22394104E+03</pdfrwt>
<totfact> 0.51980730E+04</totfact>
</mgrwt>
<rwgt>
<wgt id='1'> +6.2108923e+02 </wgt>
<wgt id='2'> +5.1712589e+02 </wgt>
<wgt id='3'> +4.8949593e+02 </wgt>
<wgt id='4'> +6.3191139e+02 </wgt>
<wgt id='5'> +4.8197011e+02 </wgt>
<wgt id='6'> +5.8619013e+02 </wgt>
<wgt id='7'> +4.8212080e+02 </wgt>
<wgt id='8'> +4.5607043e+02 </wgt>
<wgt id='9'> +5.9731412e+02 </wgt>
<wgt id='10'> +4.4908592e+02 </wgt>
<wgt id='11'> +5.4619758e+02 </wgt>
<wgt id='12'> +4.4925947e+02 </wgt>
<wgt id='13'> +4.2502811e+02 </wgt>
<wgt id='14'> +5.5652620e+02 </wgt>
<wgt id='15'> +4.1853396e+02 </wgt>
<wgt id='16'> +5.1026592e+02 </wgt>
<wgt id='17'> +4.3474676e+02 </wgt>
<wgt id='18'> +4.1306950e+02 </wgt>
<wgt id='19'> +5.1784822e+02 </wgt>
<wgt id='20'> +4.0704959e+02 </wgt>
<wgt id='21'> +4.0531804e+02 </wgt>
<wgt id='22'> +3.8486282e+02 </wgt>
<wgt id='23'> +4.8949593e+02 </wgt>
<wgt id='24'> +3.7927713e+02 </wgt>
<wgt id='25'> +4.4873748e+02 </wgt>
<wgt id='26'> +3.7769158e+02 </wgt>
<wgt id='27'> +3.5866724e+02 </wgt>
<wgt id='28'> +4.5607043e+02 </wgt>
<wgt id='29'> +3.5347436e+02 </wgt>
<wgt id='30'> +4.3096067e+02 </wgt>
<wgt id='31'> +3.7071324e+02 </wgt>
<wgt id='32'> +3.5319988e+02 </wgt>
<wgt id='33'> +4.3699507e+02 </wgt>
<wgt id='34'> +3.4831753e+02 </wgt>
<wgt id='35'> +4.0674492e+02 </wgt>
<wgt id='36'> +3.4561905e+02 </wgt>
<wgt id='37'> +3.2908143e+02 </wgt>
<wgt id='38'> +4.1306950e+02 </wgt>
<wgt id='39'> +3.2455229e+02 </wgt>
<wgt id='40'> +3.7899494e+02 </wgt>
<wgt id='41'> +3.2206168e+02 </wgt>
<wgt id='42'> +3.0668259e+02 </wgt>
<wgt id='43'> +3.8486282e+02 </wgt>
<wgt id='44'> +3.0247253e+02 </wgt>
<wgt id='45'> +4.8159400e+02 </wgt>
<wgt id='46'> +4.8939973e+02 </wgt>
<wgt id='47'> +4.9646741e+02 </wgt>
<wgt id='48'> +4.8449920e+02 </wgt>
<wgt id='49'> +4.7496868e+02 </wgt>
<wgt id='50'> +5.6764126e+02 </wgt>
<wgt id='51'> +4.7028279e+02 </wgt>
<wgt id='52'> +4.8001468e+02 </wgt>
<wgt id='53'> +4.7824823e+02 </wgt>
<wgt id='54'> +4.8834546e+02 </wgt>
<wgt id='55'> +4.5269220e+02 </wgt>
<wgt id='56'> +4.4311323e+02 </wgt>
<wgt id='57'> +4.8085491e+02 </wgt>
<wgt id='58'> +4.7434998e+02 </wgt>
<wgt id='59'> +4.9408632e+02 </wgt>
<wgt id='60'> +4.7685552e+02 </wgt>
<wgt id='61'> +4.3296962e+02 </wgt>
<wgt id='62'> +4.7271415e+02 </wgt>
<wgt id='63'> +4.8367182e+02 </wgt>
<wgt id='64'> +4.7368278e+02 </wgt>
<wgt id='65'> +5.3857443e+02 </wgt>
<wgt id='66'> +4.7313843e+02 </wgt>
<wgt id='67'> +4.8472250e+02 </wgt>
<wgt id='68'> +5.2740298e+02 </wgt>
<wgt id='69'> +4.7887064e+02 </wgt>
<wgt id='70'> +4.7613876e+02 </wgt>
<wgt id='71'> +4.8658866e+02 </wgt>
<wgt id='72'> +4.6485845e+02 </wgt>
<wgt id='73'> +4.6823372e+02 </wgt>
<wgt id='74'> +5.0625634e+02 </wgt>
<wgt id='75'> +4.9271690e+02 </wgt>
<wgt id='76'> +4.7455604e+02 </wgt>
<wgt id='77'> +4.7044079e+02 </wgt>
<wgt id='78'> +4.6482963e+02 </wgt>
<wgt id='79'> +4.7394795e+02 </wgt>
<wgt id='80'> +4.6989314e+02 </wgt>
<wgt id='81'> +4.7352208e+02 </wgt>
<wgt id='82'> +4.7878744e+02 </wgt>
<wgt id='83'> +4.8757852e+02 </wgt>
<wgt id='84'> +5.1743427e+02 </wgt>
<wgt id='85'> +4.9235463e+02 </wgt>
<wgt id='86'> +4.8299066e+02 </wgt>
<wgt id='87'> +4.8387493e+02 </wgt>
<wgt id='88'> +4.8449297e+02 </wgt>
<wgt id='89'> +4.8701582e+02 </wgt>
<wgt id='90'> +4.8915302e+02 </wgt>
<wgt id='91'> +4.9554683e+02 </wgt>
<wgt id='92'> +4.4278741e+02 </wgt>
<wgt id='93'> +4.7814773e+02 </wgt>
<wgt id='94'> +4.7066163e+02 </wgt>
<wgt id='95'> +4.7363504e+02 </wgt>
<wgt id='96'> +5.1502052e+02 </wgt>
<wgt id='97'> +4.7837965e+02 </wgt>
<wgt id='98'> +4.6986682e+02 </wgt>
<wgt id='99'> +4.5863590e+02 </wgt>
<wgt id='100'> +4.5480521e+02 </wgt>
<wgt id='101'> +5.2482997e+02 </wgt>
<wgt id='102'> +4.8953611e+02 </wgt>
<wgt id='103'> +5.1682314e+02 </wgt>
<wgt id='104'> +4.8517377e+02 </wgt>
<wgt id='105'> +4.9759403e+02 </wgt>
<wgt id='106'> +4.4259059e+02 </wgt>
<wgt id='107'> +4.6377444e+02 </wgt>
<wgt id='108'> +4.2909668e+02 </wgt>
<wgt id='109'> +4.5493425e+02 </wgt>
<wgt id='110'> +4.7785505e+02 </wgt>
<wgt id='111'> +4.6913218e+02 </wgt>
<wgt id='112'> +4.5865220e+02 </wgt>
<wgt id='113'> +4.4817137e+02 </wgt>
<wgt id='114'> +4.7449482e+02 </wgt>
<wgt id='115'> +4.6231924e+02 </wgt>
<wgt id='116'> +4.9424632e+02 </wgt>
<wgt id='117'> +4.7859664e+02 </wgt>
<wgt id='118'> +5.0135869e+02 </wgt>
<wgt id='119'> +4.7043455e+02 </wgt>
<wgt id='120'> +4.7208167e+02 </wgt>
<wgt id='121'> +4.7224966e+02 </wgt>
<wgt id='122'> +4.7635892e+02 </wgt>
<wgt id='123'> +4.8445548e+02 </wgt>
<wgt id='124'> +5.2701413e+02 </wgt>
<wgt id='125'> +5.3204598e+02 </wgt>
<wgt id='126'> +4.9587069e+02 </wgt>
<wgt id='127'> +4.9313972e+02 </wgt>
<wgt id='128'> +4.4143191e+02 </wgt>
<wgt id='129'> +5.3779864e+02 </wgt>
<wgt id='130'> +4.7807011e+02 </wgt>
<wgt id='131'> +5.0269008e+02 </wgt>
<wgt id='132'> +4.9917774e+02 </wgt>
<wgt id='133'> +4.9133973e+02 </wgt>
<wgt id='134'> +4.6654623e+02 </wgt>
<wgt id='135'> +4.8850643e+02 </wgt>
<wgt id='136'> +4.9050932e+02 </wgt>
<wgt id='137'> +4.6115355e+02 </wgt>
<wgt id='138'> +4.5052775e+02 </wgt>
<wgt id='139'> +4.9450885e+02 </wgt>
<wgt id='140'> +4.9810151e+02 </wgt>
<wgt id='141'> +4.8844954e+02 </wgt>
<wgt id='142'> +4.5856193e+02 </wgt>
<wgt id='143'> +4.8830121e+02 </wgt>
<wgt id='144'> +4.7365336e+02 </wgt>
<wgt id='145'> +4.7859660e+02 </wgt>
</rwgt>
</event>
<event>
 8      1 +4.8159400e+02 1.74438900e+02 7.54677100e-03 1.17349600e-01
       21 -1    0    0  501  502 +0.0000000000e+00 +0.0000000000e+00 +1.7130914952e+02 1.7130914952e+02 0.0000000000e+00 0.0000e+00 1.0000e+00
       21 -1    0    0  502  503 -0.0000000000e+00 -0.0000000000e+00 -1.9105553292e+02 1.9105553292e+02 0.0000000000e+00 0.0000e+00 1.0000e+00
       -6  2    1    2    0  503 -1.1331301809e+00 +1.0962493368e+01 -5.9344124685e+01 1.8425702446e+02 1.7409039515e+02 0.0000e+00 0.0000e+00
        6  2    1    2  501    0 +1.1331301809e+00 -1.0962493368e+01 +3.9597741281e+01 1.7810765798e+02 1.7330001867e+02 0.0000e+00 0.0000e+00
        5  1    4    4  501    0 +4.1765828957e+01 -5.7520167966e+01 +2.5736176187e+01 7.5745593642e+01 4.7000000000e+00 0.0000e+00 -1.0000e+00
       24  1    4    4    0    0 -4.0632698776e+01 +4.6557674598e+01 +1.3861565094e+01 1.0236206434e+02 8.0419002446e+01 0.0000e+00 0.0000e+00
       -5  1    3    3    0  503 -6.6970113789e+01 +2.8971728678e+00 -4.0097153913e+01 7.8251271578e+01 4.7000000000e+00 0.0000e+00 1.0000e+00
      -24  1    3    3    0    0 +6.5836983608e+01 +8.0653205003e+00 -1.9246970771e+01 1.0600575288e+02 8.0419002446e+01 0.0000e+00 1.0000e+00
<mgrwt>
<rscale>  2 0.17424136E+03</rscale>
<asrwt>0</asrwt>
<pdfrwt beam="1">  1       21 0.26355254E-01 0.17443889E+03</pdfrwt>
<pdfrwt beam="2">  1       21 0.29393159E-01 0.17443889E+03</pdfrwt>
<totfact> 0.15270395E+05</totfact>
</mgrwt>
<rwgt>
<wgt id='1'> +6.1087059e+02 </wgt>
<wgt id='2'> +4.8556679e+02 </wgt>
<wgt id='3'> +4.8365982e+02 </wgt>
<wgt id='4'> +6.1363421e+02 </wgt>
<wgt id='5'> +4.7564955e+02 </wgt>
<wgt id='6'> +5.9376264e+02 </wgt>
<wgt id='7'> +4.6241597e+02 </wgt>
<wgt id='8'> +4.6050352e+02 </wgt>
<wgt id='9'> +5.9664814e+02 </wgt>
<wgt id='10'> +4.5252573e+02 </wgt>
<wgt id='11'> +5.6520430e+02 </wgt>
<wgt id='12'> +4.3891839e+02 </wgt>
<wgt id='13'> +4.3709279e+02 </wgt>
<wgt id='14'> +5.6808226e+02 </wgt>
<wgt id='15'> +4.2947958e+02 </wgt>
<wgt id='16'> +4.9547006e+02 </wgt>
<wgt id='17'> +4.0718853e+02 </wgt>
<wgt id='18'> +4.0575982e+02 </wgt>
<wgt id='19'> +4.9742921e+02 </wgt>
<wgt id='20'> +3.9970654e+02 </wgt>
<wgt id='21'> +3.8777462e+02 </wgt>
<wgt id='22'> +3.8633316e+02 </wgt>
<wgt id='23'> +4.8365982e+02 </wgt>
<wgt id='24'> +3.8027471e+02 </wgt>
<wgt id='25'> +4.5843066e+02 </wgt>
<wgt id='26'> +3.6806992e+02 </wgt>
<wgt id='27'> +3.6669304e+02 </wgt>
<wgt id='28'> +4.6050352e+02 </wgt>
<wgt id='29'> +3.6090814e+02 </wgt>
<wgt id='30'> +4.1585008e+02 </wgt>
<wgt id='31'> +3.4672827e+02 </wgt>
<wgt id='32'> +3.4558812e+02 </wgt>
<wgt id='33'> +4.1731146e+02 </wgt>
<wgt id='34'> +3.4074827e+02 </wgt>
<wgt id='35'> +4.0420384e+02 </wgt>
<wgt id='36'> +3.3019698e+02 </wgt>
<wgt id='37'> +3.2904231e+02 </wgt>
<wgt id='38'> +4.0575982e+02 </wgt>
<wgt id='39'> +3.2418271e+02 </wgt>
<wgt id='40'> +3.8476275e+02 </wgt>
<wgt id='41'> +3.1341808e+02 </wgt>
<wgt id='42'> +3.1231471e+02 </wgt>
<wgt id='43'> +3.8633316e+02 </wgt>
<wgt id='44'> +3.0767279e+02 </wgt>
<wgt id='45'> +4.8159400e+02 </wgt>
<wgt id='46'> +4.7596761e+02 </wgt>
<wgt id='47'> +4.9556535e+02 </wgt>
<wgt id='48'> +4.7947998e+02 </wgt>
<wgt id='49'> +4.8113942e+02 </wgt>
<wgt id='50'> +5.4637399e+02 </wgt>
<wgt id='51'> +4.7232318e+02 </wgt>
<wgt id='52'> +4.7729389e+02 </wgt>
<wgt id='53'> +4.9214032e+02 </wgt>
<wgt id='54'> +4.8432465e+02 </wgt>
<wgt id='55'> +4.3122351e+02 </wgt>
<wgt id='56'> +4.5464360e+02 </wgt>
<wgt id='57'> +4.6854867e+02 </wgt>
<wgt id='58'> +4.9015220e+02 </wgt>
<wgt id='59'> +4.6794107e+02 </wgt>
<wgt id='60'> +4.5591503e+02 </wgt>
<wgt id='61'> +4.8156396e+02 </wgt>
<wgt id='62'> +4.7426507e+02 </wgt>
<wgt id='63'> +4.8201037e+02 </wgt>
<wgt id='64'> +4.8261910e+02 </wgt>
<wgt id='65'> +5.6936717e+02 </wgt>
<wgt id='66'> +4.6903189e+02 </wgt>
<wgt id='67'> +4.8598493e+02 </wgt>
<wgt id='68'> +5.0865485e+02 </wgt>
<wgt id='69'> +4.6298724e+02 </wgt>
<wgt id='70'> +4.7475564e+02 </wgt>
<wgt id='71'> +4.9100110e+02 </wgt>
<wgt id='72'> +4.7835735e+02 </wgt>
<wgt id='73'> +4.7809641e+02 </wgt>
<wgt id='74'> +4.8948794e+02 </wgt>
<wgt id='75'> +4.9070634e+02 </wgt>
<wgt id='76'> +4.6885536e+02 </wgt>
<wgt id='77'> +4.6025505e+02 </wgt>
<wgt id='78'> +4.8884465e+02 </wgt>
<wgt id='79'> +4.5817804e+02 </wgt>
<wgt id='80'> +4.7988103e+02 </wgt>
<wgt id='81'> +4.7504406e+02 </wgt>
<wgt id='82'> +4.9843089e+02 </wgt>
<wgt id='83'> +4.8879957e+02 </wgt>
<wgt id='84'> +5.2598686e+02 </wgt>
<wgt id='85'> +5.0707378e+02 </wgt>
<wgt id='86'> +4.7491866e+02 </wgt>
<wgt id='87'> +4.7941490e+02 </wgt>
<wgt id='88'> +4.8842086e+02 </wgt>
<wgt id='89'> +4.9017910e+02 </wgt>
<wgt id='90'> +4.8458974e+02 </wgt>
<wgt id='91'> +5.1440733e+02 </wgt>
<wgt id='92'> +4.5352557e+02 </wgt>
<wgt id='93'> +4.7004101e+02 </wgt>
<wgt id='94'> +4.8333185e+02 </wgt>
<wgt id='95'> +4.6423164e+02 </wgt>
<wgt id='96'> +5.1292452e+02 </wgt>
<wgt id='97'> +4.9273031e+02 </wgt>
<wgt id='98'> +4.5802000e+02 </wgt>
<wgt id='99'> +4.7018768e+02 </wgt>
<wgt id='100'> +4.8817905e+02 </wgt>
<wgt id='101'> +4.9362112e+02 </wgt>
<wgt id='102'> +4.5748781e+02 </wgt>
<wgt id='103'> +5.1797844e+02 </wgt>
<wgt id='104'> +4.7784939e+02 </wgt>
<wgt id='105'> +5.0456792e+02 </wgt>
<wgt id='106'> +4.5269674e+02 </wgt>
<wgt id='107'> +4.8577840e+02 </wgt>
<wgt id='108'> +4.4129171e+02 </wgt>
<wgt id='109'> +4.5835286e+02 </wgt>
<wgt id='110'> +4.8440697e+02 </wgt>
<wgt id='111'> +4.7253541e+02 </wgt>
<wgt id='112'> +4.6532773e+02 </wgt>
<wgt id='113'> +4.4684385e+02 </wgt>
<wgt id='114'> +4.9056164e+02 </wgt>
<wgt id='115'> +4.9386583e+02 </wgt>
<wgt id='116'> +4.7245544e+02 </wgt>
<wgt id='117'> +4.9202731e+02 </wgt>
<wgt id='118'> +4.8576801e+02 </wgt>
<wgt id='119'> +4.6573699e+02 </wgt>
<wgt id='120'> +4.8692055e+02 </wgt>
<wgt id='121'> +4.7093058e+02 </wgt>
<wgt id='122'> +4.7651052e+02 </wgt>
<wgt id='123'> +4.8583881e+02 </wgt>
<wgt id='124'> +5.0376238e+02 </wgt>
<wgt id='125'> +5.0586184e+02 </wgt>
<wgt id='126'> +4.9667418e+02 </wgt>
<wgt id='127'> +4.9279885e+02 </wgt>
<wgt id='128'> +4.5314631e+02 </wgt>
<wgt id='129'> +5.4195282e+02 </wgt>
<wgt id='130'> +4.8401981e+02 </wgt>
<wgt id='131'> +5.1641350e+02 </wgt>
<wgt id='132'> +4.6932685e+02 </wgt>
<wgt id='133'> +4.7172383e+02 </wgt>
<wgt id='134'> +4.5135454e+02 </wgt>
<wgt id='135'> +4.9407249e+02 </wgt>
<wgt id='136'> +4.5610467e+02 </wgt>
<wgt id='137'> +4.5118551e+02 </wgt>
<wgt id='138'> +4.3106165e+02 </wgt>
<wgt id='139'> +4.8734907e+02 </wgt>
<wgt id='140'> +5.1591351e+02 </wgt>
<wgt id='141'> +4.7879693e+02 </wgt>
<wgt id='142'> +4.9337467e+02 </wgt>
<wgt id='143'> +4.7351017e+02 </wgt>
<wgt id='144'> +4.8567104e+02 </wgt>
<wgt id='145'> +4.8251600e+02 </wgt>
</rwgt>
</event>
<event>
 8      1 +4.8159400e+02 1.86880000e+02 7.54677100e-03 1.16130600e-01
        1 -1    0    0  502    0 +0.0000000000e+00 +0.0000000000e+00 +8.3534825033e+01 8.3534825033e+01 0.0000000000e+00 0.0000e+00 -1.0000e+00
       -1 -1    0    0    0  501 -0.0000000000e+00 -0.0000000000e+00 -6.7629387053e+02 6.7629387053e+02 0.0000000000e+00 0.0000e+00 1.0000e+00
        6  2    1    2  502    0 +3.9339672929e+01 -5.7421998378e+01 -6.1409163869e+01 1.9649892580e+02 1.7319309071e+02 0.0000e+00 0.0000e+00
       -6  2    1    2    0  501 -3.9339672929e+01 +5.7421998378e+01 -5.3134988163e+02 5.6332976977e+02 1.7367451463e+02 0.0000e+00 0.0000e+00
        5  1    3    3  502    0 +6.7728071724e+01 +1.8035563937e+01 -7.9246690664e+00 7.0691326525e+01 4.7000000000e+00 0.0000e+00 -1.0000e+00
       24  1    3    3    0    0 -2.8388398796e+01 -7.5457562315e+01 -5.3484494803e+01 1.2580759928e+02 8.0419002446e+01 0.0000e+00 -1.0000e+00
       -5  1    4    4    0  501 -6.4539144386e+01 +6.7624118005e+01 -1.9306918111e+02 2.1456029732e+02 4.7000000000e+00 0.0000e+00 1.0000e+00
      -24  1    4    4    0    0 +2.5199471458e+01 -1.0202119627e+01 -3.3828070053e+02 3.4876947244e+02 8.0419002446e+01 0.0000e+00 1.0000e+00
<mgrwt>
<rscale>  2 0.18688001E+03</rscale>
<asrwt>0</asrwt>
<pdfrwt beam="1">  1        1 0.12851511E-01 0.18688001E+03</pdfrwt>
<pdfrwt beam="2">  1       -1 0.10404521E+00 0.18688001E+03</pdfrwt>
<totfact> 0.42304633E+02</totfact>
</mgrwt>
<rwgt>
<wgt id='1'> +5.9034310e+02 </wgt>
<wgt id='2'> +5.1388130e+02 </wgt>
<wgt id='3'> +4.8555163e+02 </wgt>
<wgt id='4'> +5.9583823e+02 </wgt>
<wgt id='5'> +4.5245850e+02 </wgt>
<wgt id='6'> +5.9181806e+02 </wgt>
<wgt id='7'> +5.1311801e+02 </wgt>
<wgt id='8'> +4.8406636e+02 </wgt>
<wgt id='9'> +5.9749684e+02 </wgt>
<wgt id='10'> +4.5019347e+02 </wgt>
<wgt id='11'> +5.8987213e+02 </wgt>
<wgt id='12'> +5.0981892e+02 </wgt>
<wgt id='13'> +4.8038379e+02 </wgt>
<wgt id='14'> +5.9566914e+02 </wgt>
<wgt id='15'> +4.4612541e+02 </wgt>
<wgt id='16'> +4.8039374e+02 </wgt>
<wgt id='17'> +4.2839580e+02 </wgt>
<wgt id='18'> +4.0805519e+02 </wgt>
<wgt id='19'> +4.8420377e+02 </wgt>
<wgt id='20'> +3.8260236e+02 </wgt>
<wgt id='21'> +4.2775949e+02 </wgt>
<wgt id='22'> +4.0680698e+02 </wgt>
<wgt id='23'> +4.8555163e+02 </wgt>
<wgt id='24'> +3.8068703e+02 </wgt>
<wgt id='25'> +4.8001049e+02 </wgt>
<wgt id='26'> +4.2500921e+02 </wgt>
<wgt id='27'> +4.0371216e+02 </wgt>
<wgt id='28'> +4.8406636e+02 </wgt>
<wgt id='29'> +3.7724705e+02 </wgt>
<wgt id='30'> +4.0409225e+02 </wgt>
<wgt id='31'> +3.6384158e+02 </wgt>
<wgt id='32'> +3.4787913e+02 </wgt>
<wgt id='33'> +4.0692245e+02 </wgt>
<wgt id='34'> +3.2775614e+02 </wgt>
<wgt id='35'> +4.0510187e+02 </wgt>
<wgt id='36'> +3.6330115e+02 </wgt>
<wgt id='37'> +3.4681499e+02 </wgt>
<wgt id='38'> +4.0805519e+02 </wgt>
<wgt id='39'> +3.2611537e+02 </wgt>
<wgt id='40'> +4.0376987e+02 </wgt>
<wgt id='41'> +3.6096531e+02 </wgt>
<wgt id='42'> +3.4417657e+02 </wgt>
<wgt id='43'> +4.0680698e+02 </wgt>
<wgt id='44'> +3.2316851e+02 </wgt>
<wgt id='45'> +4.8159400e+02 </wgt>
<wgt id='46'> +4.9164058e+02 </wgt>
<wgt id='47'> +4.9373264e+02 </wgt>
<wgt id='48'> +4.3928490e+02 </wgt>
<wgt id='49'> +4.7312431e+02 </wgt>
<wgt id='50'> +4.3576619e+02 </wgt>
<wgt id='51'> +4.1740142e+02 </wgt>
<wgt id='52'> +5.5486426e+02 </wgt>
<wgt id='53'> +5.5551215e+02 </wgt>
<wgt id='54'> +4.8720980e+02 </wgt>
<wgt id='55'> +4.4940917e+02 </wgt>
<wgt id='56'> +4.3474463e+02 </wgt>
<wgt id='57'> +4.0252091e+02 </wgt>
<wgt id='58'> +6.1898257e+02 </wgt>
<wgt id='59'> +4.5150409e+02 </wgt>
<wgt id='60'> +4.7214322e+02 </wgt>
<wgt id='61'> +4.3466723e+02 </wgt>
<wgt id='62'> +4.9335654e+02 </wgt>
<wgt id='63'> +5.1030398e+02 </wgt>
<wgt id='64'> +4.6573739e+02 </wgt>
<wgt id='65'> +4.4236098e+02 </wgt>
<wgt id='66'> +4.1071189e+02 </wgt>
<wgt id='67'> +4.9191265e+02 </wgt>
<wgt id='68'> +4.5366872e+02 </wgt>
<wgt id='69'> +4.4846014e+02 </wgt>
<wgt id='70'> +5.9552310e+02 </wgt>
<wgt id='71'> +4.2603017e+02 </wgt>
<wgt id='72'> +4.2574178e+02 </wgt>
<wgt id='73'> +5.2648413e+02 </wgt>
<wgt id='74'> +4.9475175e+02 </wgt>
<wgt id='75'> +4.5370938e+02 </wgt>
<wgt id='76'> +4.8520197e+02 </wgt>
<wgt id='77'> +4.5523892e+02 </wgt>
<wgt id='78'> +4.5596206e+02 </wgt>
<wgt id='79'> +5.1195500e+02 </wgt>
<wgt id='80'> +4.4918693e+02 </wgt>
<wgt id='81'> +5.6436022e+02 </wgt>
<wgt id='82'> +4.7600747e+02 </wgt>
<wgt id='83'> +4.5833713e+02 </wgt>
<wgt id='84'> +4.9295865e+02 </wgt>
<wgt id='85'> +4.6933632e+02 </wgt>
<wgt id='86'> +5.7004391e+02 </wgt>
<wgt id='87'> +5.1772225e+02 </wgt>
<wgt id='88'> +4.4837897e+02 </wgt>
<wgt id='89'> +6.0742050e+02 </wgt>
<wgt id='90'> +5.3529642e+02 </wgt>
<wgt id='91'> +4.2265531e+02 </wgt>
<wgt id='92'> +4.4100721e+02 </wgt>
<wgt id='93'> +4.9701954e+02 </wgt>
<wgt id='94'> +4.9825814e+02 </wgt>
<wgt id='95'> +4.3865016e+02 </wgt>
<wgt id='96'> +4.8955778e+02 </wgt>
<wgt id='97'> +4.4294063e+02 </wgt>
<wgt id='98'> +4.6916367e+02 </wgt>
<wgt id='99'> +5.5367199e+02 </wgt>
<wgt id='100'> +3.8376114e+02 </wgt>
<wgt id='101'> +4.9434073e+02 </wgt>
<wgt id='102'> +5.0722282e+02 </wgt>
<wgt id='103'> +5.5651961e+02 </wgt>
<wgt id='104'> +4.2008677e+02 </wgt>
<wgt id='105'> +5.2099696e+02 </wgt>
<wgt id='106'> +4.8919601e+02 </wgt>
<wgt id='107'> +4.9667984e+02 </wgt>
<wgt id='108'> +4.1724538e+02 </wgt>
<wgt id='109'> +4.1651330e+02 </wgt>
<wgt id='110'> +5.2129609e+02 </wgt>
<wgt id='111'> +4.6159859e+02 </wgt>
<wgt id='112'> +4.2639141e+02 </wgt>
<wgt id='113'> +5.1101539e+02 </wgt>
<wgt id='114'> +4.4164406e+02 </wgt>
<wgt id='115'> +4.0118159e+02 </wgt>
<wgt id='116'> +4.5245534e+02 </wgt>
<wgt id='117'> +4.3181469e+02 </wgt>
<wgt id='118'> +5.0608150e+02 </wgt>
<wgt id='119'> +5.4672731e+02 </wgt>
<wgt id='120'> +4.9477452e+02 </wgt>
<wgt id='121'> +4.5363731e+02 </wgt>
<wgt id='122'> +4.8199158e+02 </wgt>
<wgt id='123'> +4.6892213e+02 </wgt>
<wgt id='124'> +4.6922815e+02 </wgt>
<wgt id='125'> +4.5651919e+02 </wgt>
<wgt id='126'> +5.0942380e+02 </wgt>
<wgt id='127'> +5.1273768e+02 </wgt>
<wgt id='128'> +4.4138150e+02 </wgt>
<wgt id='129'> +5.3368706e+02 </wgt>
<wgt id='130'> +4.2155715e+02 </wgt>
<wgt id='131'> +5.4626295e+02 </wgt>
<wgt id='132'> +4.6383719e+02 </wgt>
<wgt id='133'> +6.3994348e+02 </wgt>
<wgt id='134'> +4.2803302e+02 </wgt>
<wgt id='135'> +4.1083389e+02 </wgt>
<wgt id='136'> +5.6455219e+02 </wgt>
<wgt id='137'> +4.9684952e+02 </wgt>
<wgt id='138'> +4.5250140e+02 </wgt>
<wgt id='139'> +6.1480962e+02 </wgt>
<wgt id='140'> +4.6629460e+02 </wgt>
<wgt id='141'> +5.3315058e+02 </wgt>
<wgt id='142'> +4.1047059e+02 </wgt>
<wgt id='143'> +4.9964343e+02 </wgt>
<wgt id='144'> +4.6549012e+02 </wgt>
<wgt id='145'> +5.2930223e+02 </wgt>
</rwgt>
</event>
<event>
 8      1 +4.8159400e+02 2.24092800e+02 7.54677100e-03 1.13124900e-01
       21 -1    0    0  501  502 +0.0000000000e+00 +0.0000000000e+00 +7.0927758274e+02 7.0927758274e+02 0.0000000000e+00 0.0000e+00 1.0000e+00
       21 -1    0    0  502  503 -0.0000000000e+00 -0.0000000000e+00 -8.9464137514e+01 8.9464137514e+01 0.0000000000e+00 0.0000e+00 1.0000e+00
       -6  2    1    2    0  503 -1.3113037995e+02 -5.6821999934e+01 +1.2318241829e+02 2.5389316543e+02 1.6989383465e+02 0.0000e+00 0.0000e+00
        6  2    1    2  501    0 +1.3113037995e+02 +5.6821999934e+01 +4.9663102694e+02 5.4484855483e+02 1.7260838494e+02 0.0000e+00 0.0000e+00
        5  1    4    4  501    0 +9.9872835119e+01 -1.2598832937e+01 +3.2778781439e+02 3.4292893585e+02 4.7000000000e+00 0.0000e+00 -1.0000e+00
       24  1    4    4    0    0 +3.1257544833e+01 +6.9420832871e+01 +1.6884321256e+02 2.0191961897e+02 8.0419002446e+01 0.0000e+00 0.0000e+00
       -5  1    3    3    0  503 -7.7071808702e+01 +1.5966893724e+01 -3.0409083019e+00 7.8907176576e+01 4.7000000000e+00 0.0000e+00 1.0000e+00
      -24  1    3    3    0    0 -5.4058571250e+01 -7.2788893658e+01 +1.2622332659e+02 1.7498598885e+02 8.0419002446e+01 0.0000e+00 1.0000e+00
<mgrwt>
<rscale>  2 0.22356991E+03</rscale>
<asrwt>0</asrwt>
<pdfrwt beam="1">  1       21 0.10911962E+00 0.22409277E+03</pdfrwt>
<pdfrwt beam="2">  1       21 0.13763714E-01 0.22409277E+03</pdfrwt>
<totfact> 0.30004148E+04</totfact>
</mgrwt>
<rwgt>
<wgt id='1'> +6.2815492e+02 </wgt>
<wgt id='2'> +5.1999922e+02 </wgt>
<wgt id='3'> +4.9684321e+02 </wgt>
<wgt id='4'> +6.4937878e+02 </wgt>
<wgt id='5'> +4.6095570e+02 </wgt>
<wgt id='6'> +5.8618860e+02 </wgt>
<wgt id='7'> +4.7975850e+02 </wgt>
<wgt id='8'> +4.5814734e+02 </wgt>
<wgt id='9'> +6.0757306e+02 </wgt>
<wgt id='10'> +4.2520815e+02 </wgt>
<wgt id='11'> +5.4064251e+02 </wgt>
<wgt id='12'> +4.4279580e+02 </wgt>
<wgt id='13'> +4.2294559e+02 </wgt>
<wgt id='14'> +5.6025315e+02 </wgt>
<wgt id='15'> +3.9270257e+02 </wgt>
<wgt id='16'> +5.1607220e+02 </wgt>
<wgt id='17'> +4.3707979e+02 </wgt>
<wgt id='18'> +4.1895689e+02 </wgt>
<wgt id='19'> +5.3102987e+02 </wgt>
<wgt id='20'> +3.9024283e+02 </wgt>
<wgt id='21'> +4.0325588e+02 </wgt>
<wgt id='22'> +3.8632707e+02 </wgt>
<wgt id='23'> +4.9684321e+02 </wgt>
<wgt id='24'> +3.5997913e+02 </wgt>
<wgt id='25'> +4.4417478e+02 </wgt>
<wgt id='26'> +3.7218728e+02 </wgt>
<wgt id='27'> +3.5664363e+02 </wgt>
<wgt id='28'> +4.5814734e+02 </wgt>
<wgt id='29'> +3.3246007e+02 </wgt>
<wgt id='30'> +4.3586493e+02 </wgt>
<wgt id='31'> +3.7266093e+02 </wgt>
<wgt id='32'> +3.5799346e+02 </wgt>
<wgt id='33'> +4.4778436e+02 </wgt>
<wgt id='34'> +3.3463665e+02 </wgt>
<wgt id='35'> +4.0674528e+02 </wgt>
<wgt id='36'> +3.4382215e+02 </wgt>
<wgt id='37'> +3.3011169e+02 </wgt>
<wgt id='38'> +4.1895689e+02 </wgt>
<wgt id='39'> +3.0868526e+02 </wgt>
<wgt id='40'> +3.7514171e+02 </wgt>
<wgt id='41'> +3.1733258e+02 </wgt>
<wgt id='42'> +3.0474756e+02 </wgt>
<wgt id='43'> +3.8632707e+02 </wgt>
<wgt id='44'> +2.8508742e+02 </wgt>
<wgt id='45'> +4.8159400e+02 </wgt>
<wgt id='46'> +4.9260380e+02 </wgt>
<wgt id='47'> +4.9645177e+02 </wgt>
<wgt id='48'> +4.8443229e+02 </wgt>
<wgt id='49'> +4.7048226e+02 </wgt>
<wgt id='50'> +5.7378602e+02 </wgt>
<wgt id='51'> +4.6775786e+02 </wgt>
<wgt id='52'> +4.7807657e+02 </wgt>
<wgt id='53'> +4.7600416e+02 </wgt>
<wgt id='54'> +4.9209378e+02 </wgt>
<wgt id='55'> +4.6400546e+02 </wgt>
<wgt id='56'> +4.4149236e+02 </wgt>
<wgt id='57'> +4.8678058e+02 </wgt>
<wgt id='58'> +4.6720262e+02 </wgt>
<wgt id='59'> +5.0224699e+02 </wgt>
<wgt id='60'> +4.8038862e+02 </wgt>
<wgt id='61'> +4.2269247e+02 </wgt>
<wgt id='62'> +4.6953735e+02 </wgt>
<wgt id='63'> +4.8608917e+02 </wgt>
<wgt id='64'> +4.7362219e+02 </wgt>
<wgt id='65'> +5.2638831e+02 </wgt>
<wgt id='66'> +4.7478692e+02 </wgt>
<wgt id='67'> +4.8419528e+02 </wgt>
<wgt id='68'> +5.3517920e+02 </wgt>
<wgt id='69'> +4.8510906e+02 </wgt>
<wgt id='70'> +4.7888255e+02 </wgt>
<wgt id='71'> +4.8253979e+02 </wgt>
<wgt id='72'> +4.6092419e+02 </wgt>
<wgt id='73'> +4.6236821e+02 </wgt>
<wgt id='74'> +5.1319546e+02 </wgt>
<wgt id='75'> +4.9499633e+02 </wgt>
<wgt id='76'> +4.7788310e+02 </wgt>
<wgt id='77'> +4.7082237e+02 </wgt>
<wgt id='78'> +4.5556323e+02 </wgt>
<wgt id='79'> +4.7968333e+02 </wgt>
<wgt id='80'> +4.6431906e+02 </wgt>
<wgt id='81'> +4.7474693e+02 </wgt>
<wgt id='82'> +4.7241024e+02 </wgt>
<wgt id='83'> +4.8609200e+02 </wgt>
<wgt id='84'> +5.1252603e+02 </wgt>
<wgt id='85'> +4.8440759e+02 </wgt>
<wgt id='86'> +4.8618519e+02 </wgt>
<wgt id='87'> +4.8404251e+02 </wgt>
<wgt id='88'> +4.8253987e+02 </wgt>
<wgt id='89'> +4.7982791e+02 </wgt>
<wgt id='90'> +4.8683119e+02 </wgt>
<wgt id='91'> +4.8536273e+02 </wgt>
<wgt id='92'> +4.4084202e+02 </wgt>
<wgt id='93'> +4.7998523e+02 </wgt>
<wgt id='94'> +4.6490598e+02 </wgt>
<wgt id='95'> +4.7959014e+02 </wgt>
<wgt id='96'> +5.1405835e+02 </wgt>
<wgt id='97'> +4.7194840e+02 </wgt>
<wgt id='98'> +4.7609018e+02 </wgt>
<wgt id='99'> +4.5071493e+02 </wgt>
<wgt id='100'> +4.3965884e+02 </wgt>
<wgt id='101'> +5.3493319e+02 </wgt>
<wgt id='102'> +5.0068271e+02 </wgt>
<wgt id='103'> +5.1199462e+02 </wgt>
<wgt id='104'> +4.8944321e+02 </wgt>
<wgt id='105'> +4.9656529e+02 </wgt>
<wgt id='106'> +4.4226771e+02 </wgt>
<wgt id='107'> +4.5893894e+02 </wgt>
<wgt id='108'> +4.2830962e+02 </wgt>
<wgt id='109'> +4.5659033e+02 </wgt>
<wgt id='110'> +4.7348735e+02 </wgt>
<wgt id='111'> +4.6901453e+02 </wgt>
<wgt id='112'> +4.6168312e+02 </wgt>
<wgt id='113'> +4.5235865e+02 </wgt>
<wgt id='114'> +4.7525568e+02 </wgt>
<wgt id='115'> +4.5569276e+02 </wgt>
<wgt id='116'> +5.0168568e+02 </wgt>
<wgt id='117'> +4.7553495e+02 </wgt>
<wgt id='118'> +5.0440520e+02 </wgt>
<wgt id='119'> +4.7634482e+02 </wgt>
<wgt id='120'> +4.7288371e+02 </wgt>
<wgt id='121'> +4.7372755e+02 </wgt>
<wgt id='122'> +4.7589210e+02 </wgt>
<wgt id='123'> +4.8258563e+02 </wgt>
<wgt id='124'> +5.3414164e+02 </wgt>
<wgt id='125'> +5.4392632e+02 </wgt>
<wgt id='126'> +4.9349263e+02 </wgt>
<wgt id='127'> +4.9040116e+02 </wgt>
<wgt id='128'> +4.4076978e+02 </wgt>
<wgt id='129'> +5.3390420e+02 </wgt>
<wgt id='130'> +4.7601720e+02 </wgt>
<wgt id='131'> +4.9516447e+02 </wgt>
<wgt id='132'> +5.0805251e+02 </wgt>
<wgt id='133'> +4.9832296e+02 </wgt>
<wgt id='134'> +4.7246423e+02 </wgt>
<wgt id='135'> +4.8487130e+02 </wgt>
<wgt id='136'> +5.0512488e+02 </wgt>
<wgt id='137'> +4.6586286e+02 </wgt>
<wgt id='138'> +4.5759998e+02 </wgt>
<wgt id='139'> +4.9594986e+02 </wgt>
<wgt id='140'> +4.9226217e+02 </wgt>
<wgt id='141'> +4.9536836e+02 </wgt>
<wgt id='142'> +4.4323799e+02 </wgt>
<wgt id='143'> +4.9152218e+02 </wgt>
<wgt id='144'> +4.6763674e+02 </wgt>
<wgt id='145'> +4.7395921e+02 </wgt>
</rwgt>
</event>
<event>
 8      1 +4.8159400e+02 2.23483700e+02 7.54677100e-03 1.13153200e-01
       21 -1    0    0  503  502 +0.0000000000e+00 +0.0000000000e+00 +4.9178467462e+01 4.9178467462e+01 0.0000000000e+00 0.0000e+00 1.0000e+00
       21 -1    0    0  501  503 -0.0000000000e+00 -0.0000000000e+00 -1.2065699620e+03 1.2065699620e+03 0.0000000000e+00 0.0000e+00 -1.0000e+00
        6  2    1    2  501    0 +1.0227479083e+02 +9.4570553765e+01 -3.2666640887e+02 3.9579780714e+02 1.7476051891e+02 0.0000e+00 0.0000e+00
       -6  2    1    2    0  502 -1.0227479083e+02 -9.4570553765e+01 -8.3072508570e+02 8.5995062236e+02 1.7322581334e+02 0.0000e+00 0.0000e+00
        5  1    3    3  501    0 +9.2128458956e+01 +2.3125888849e+01 -2.3706833310e+02 2.5543285663e+02 4.7000000000e+00 0.0000e+00 -1.0000e+00
       24  1    3    3    0    0 +1.0146331875e+01 +7.1444664916e+01 -8.9598075771e+01 1.4036495051e+02 8.0419002446e+01 0.0000e+00 1.0000e+00
       -5  1    4    4    0  502 -9.0013632501e+01 -1.0637164627e+02 -5.5397663409e+02 5.7125264313e+02 4.7000000000e+00 0.0000e+00 1.0000e+00
      -24  1    4    4    0    0 -1.2261158330e+01 +1.1801092506e+01 -2.7674845161e+02 2.8869797923e+02 8.0419002446e+01 0.0000e+00 -1.0000e+00
<mgrwt>
<rscale>  2 0.22318358E+03</rscale>
<asrwt>0</asrwt>
<pdfrwt beam="1">  1       21 0.75659182E-02 0.22348369E+03</pdfrwt>
<pdfrwt beam="2">  1       21 0.18562614E+00 0.22348369E+03</pdfrwt>
<totfact> 0.21579618E+04</totfact>
</mgrwt>
<rwgt>
<wgt id='1'> +6.4098739e+02 </wgt>
<wgt id='2'> +5.3764630e+02 </wgt>
<wgt id='3'> +4.9134103e+02 </wgt>
<wgt id='4'> +6.5483207e+02 </wgt>
<wgt id='5'> +4.6520603e+02 </wgt>
<wgt id='6'> +5.8624435e+02 </wgt>
<wgt id='7'> +4.8695602e+02 </wgt>
<wgt id='8'> +4.4466206e+02 </wgt>
<wgt id='9'> +5.9977295e+02 </wgt>
<wgt id='10'> +4.2124887e+02 </wgt>
<wgt id='11'> +5.3068192e+02 </wgt>
<wgt id='12'> +4.4146044e+02 </wgt>
<wgt id='13'> +4.0346934e+02 </wgt>
<wgt id='14'> +5.4279261e+02 </wgt>
<wgt id='15'> +3.8244059e+02 </wgt>
<wgt id='16'> +5.2656487e+02 </wgt>
<wgt id='17'> +4.5086421e+02 </wgt>
<wgt id='18'> +4.1457830e+02 </wgt>
<wgt id='19'> +5.3644611e+02 </wgt>
<wgt id='20'> +3.9357728e+02 </wgt>
<wgt id='21'> +4.0835590e+02 </wgt>
<wgt id='22'> +3.7519203e+02 </wgt>
<wgt id='23'> +4.9134103e+02 </wgt>
<wgt id='24'> +3.5638830e+02 </wgt>
<wgt id='25'> +4.3595000e+02 </wgt>
<wgt id='26'> +3.7020381e+02 </wgt>
<wgt id='27'> +3.4043489e+02 </wgt>
<wgt id='28'> +4.4466206e+02 </wgt>
<wgt id='29'> +3.2355541e+02 </wgt>
<wgt id='30'> +4.4471239e+02 </wgt>
<wgt id='31'> +3.8392006e+02 </wgt>
<wgt id='32'> +3.5445181e+02 </wgt>
<wgt id='33'> +4.5263656e+02 </wgt>
<wgt id='34'> +3.3730103e+02 </wgt>
<wgt id='35'> +4.0673207e+02 </wgt>
<wgt id='36'> +3.4772337e+02 </wgt>
<wgt id='37'> +3.2077776e+02 </wgt>
<wgt id='38'> +4.1457830e+02 </wgt>
<wgt id='39'> +3.0542957e+02 </wgt>
<wgt id='40'> +3.6818326e+02 </wgt>
<wgt id='41'> +3.1523609e+02 </wgt>
<wgt id='42'> +2.9106146e+02 </wgt>
<wgt id='43'> +3.7519203e+02 </wgt>
<wgt id='44'> +2.7729134e+02 </wgt>
<wgt id='45'> +4.8159400e+02 </wgt>
<wgt id='46'> +4.9473994e+02 </wgt>
<wgt id='47'> +4.9814565e+02 </wgt>
<wgt id='48'> +4.8086306e+02 </wgt>
<wgt id='49'> +4.4781624e+02 </wgt>
<wgt id='50'> +5.6540520e+02 </wgt>
<wgt id='51'> +4.5531648e+02 </wgt>
<wgt id='52'> +4.5470993e+02 </wgt>
<wgt id='53'> +4.8210819e+02 </wgt>
<wgt id='54'> +5.0901525e+02 </wgt>
<wgt id='55'> +5.2891360e+02 </wgt>
<wgt id='56'> +4.5791879e+02 </wgt>
<wgt id='57'> +5.0933204e+02 </wgt>
<wgt id='58'> +4.4096106e+02 </wgt>
<wgt id='59'> +5.2141820e+02 </wgt>
<wgt id='60'> +4.8193079e+02 </wgt>
<wgt id='61'> +4.2640231e+02 </wgt>
<wgt id='62'> +4.4756666e+02 </wgt>
<wgt id='63'> +5.0460394e+02 </wgt>
<wgt id='64'> +4.8136739e+02 </wgt>
<wgt id='65'> +4.5325832e+02 </wgt>
<wgt id='66'> +4.8562186e+02 </wgt>
<wgt id='67'> +4.8444206e+02 </wgt>
<wgt id='68'> +5.7669000e+02 </wgt>
<wgt id='69'> +5.1466074e+02 </wgt>
<wgt id='70'> +5.1259196e+02 </wgt>
<wgt id='71'> +4.5398023e+02 </wgt>
<wgt id='72'> +4.4567395e+02 </wgt>
<wgt id='73'> +4.3947264e+02 </wgt>
<wgt id='74'> +5.4617381e+02 </wgt>
<wgt id='75'> +5.1877146e+02 </wgt>
<wgt id='76'> +4.9343119e+02 </wgt>
<wgt id='77'> +4.5814679e+02 </wgt>
<wgt id='78'> +4.2114354e+02 </wgt>
<wgt id='79'> +5.1004893e+02 </wgt>
<wgt id='80'> +4.3293870e+02 </wgt>
<wgt id='81'> +4.9513352e+02 </wgt>
<wgt id='82'> +4.7078758e+02 </wgt>
<wgt id='83'> +4.7598682e+02 </wgt>
<wgt id='84'> +4.7646328e+02 </wgt>
<wgt id='85'> +4.4255847e+02 </wgt>
<wgt id='86'> +5.0218322e+02 </wgt>
<wgt id='87'> +4.7659265e+02 </wgt>
<wgt id='88'> +4.7130962e+02 </wgt>
<wgt id='89'> +4.2148105e+02 </wgt>
<wgt id='90'> +4.5556473e+02 </wgt>
<wgt id='91'> +4.3023612e+02 </wgt>
<wgt id='92'> +4.5105391e+02 </wgt>
<wgt id='93'> +4.8570030e+02 </wgt>
<wgt id='94'> +4.4540763e+02 </wgt>
<wgt id='95'> +5.0361052e+02 </wgt>
<wgt id='96'> +5.0441356e+02 </wgt>
<wgt id='97'> +4.4208020e+02 </wgt>
<wgt id='98'> +5.1150513e+02 </wgt>
<wgt id='99'> +4.1190221e+02 </wgt>
<wgt id='100'> +3.7935611e+02 </wgt>
<wgt id='101'> +5.5753239e+02 </wgt>
<wgt id='102'> +5.3561708e+02 </wgt>
<wgt id='103'> +4.6807594e+02 </wgt>
<wgt id='104'> +5.1131123e+02 </wgt>
<wgt id='105'> +4.9410570e+02 </wgt>
<wgt id='106'> +4.6484451e+02 </wgt>
<wgt id='107'> +4.6445710e+02 </wgt>
<wgt id='108'> +4.4767180e+02 </wgt>
<wgt id='109'> +4.7420848e+02 </wgt>
<wgt id='110'> +4.4775296e+02 </wgt>
<wgt id='111'> +4.6869397e+02 </wgt>
<wgt id='112'> +4.9597935e+02 </wgt>
<wgt id='113'> +4.9763292e+02 </wgt>
<wgt id='114'> +4.9632312e+02 </wgt>
<wgt id='115'> +4.4341681e+02 </wgt>
<wgt id='116'> +5.2432816e+02 </wgt>
<wgt id='117'> +4.7164625e+02 </wgt>
<wgt id='118'> +4.9755005e+02 </wgt>
<wgt id='119'> +5.2002411e+02 </wgt>
<wgt id='120'> +4.8111693e+02 </wgt>
<wgt id='121'> +4.7520706e+02 </wgt>
<wgt id='122'> +4.7212844e+02 </wgt>
<wgt id='123'> +4.6295948e+02 </wgt>
<wgt id='124'> +5.4213893e+02 </wgt>
<wgt id='125'> +5.9453664e+02 </wgt>
<wgt id='126'> +4.7429568e+02 </wgt>
<wgt id='127'> +4.6522190e+02 </wgt>
<wgt id='128'> +4.6049108e+02 </wgt>
<wgt id='129'> +4.9793836e+02 </wgt>
<wgt id='130'> +4.6727873e+02 </wgt>
<wgt id='131'> +4.5081625e+02 </wgt>
<wgt id='132'> +5.2579432e+02 </wgt>
<wgt id='133'> +5.2132349e+02 </wgt>
<wgt id='134'> +5.0186326e+02 </wgt>
<wgt id='135'> +4.6410911e+02 </wgt>
<wgt id='136'> +5.5990570e+02 </wgt>
<wgt id='137'> +4.9818663e+02 </wgt>
<wgt id='138'> +4.8707298e+02 </wgt>
<wgt id='139'> +4.9630260e+02 </wgt>
<wgt id='140'> +4.7247094e+02 </wgt>
<wgt id='141'> +5.3830922e+02 </wgt>
<wgt id='142'> +3.5529405e+02 </wgt>
<wgt id='143'> +4.9433243e+02 </wgt>
<wgt id='144'> +4.4269427e+02 </wgt>
<wgt id='145'> +4.4794808e+02 </wgt>
</rwgt>
</event>
<event>
 8      1 +4.8159400e+02 1.80082800e+02 7.54677100e-03 1.16820200e-01
       21 -1    0    0  501  502 +0.0000000000e+00 +0.0000000000e+00 +1.2809483175e+03 1.2809483175e+03 0.0000000000e+00 0.0000e+00 -1.0000e+00
       21 -1    0    0  502  503 -0.0000000000e+00 -0.0000000000e+00 -3.1390307370e+01 3.1390307370e+01 0.0000000000e+00 0.0000e+00 -1.0000e+00
       -6  2    1    2    0  503 -3.8159991210e+01 -1.7095549101e+01 +3.3241538080e+02 3.7806057927e+02 1.7516099303e+02 0.0000e+00 0.0000e+00
        6  2    1    2  501    0 +3.8159991210e+01 +1.7095549101e+01 +9.1714262937e+02 9.3427804564e+02 1.7313700132e+02 0.0000e+00 0.0000e+00
        5  1    4    4  501    0 +3.9392388875e+01 +1.3005315172e+01 +7.2152740636e+02 7.2273424345e+02 4.7000000000e+00 0.0000e+00 -1.0000e+00
       24  1    4    4    0    0 -1.2323976656e+00 +4.0902339295e+00 +1.9561522301e+02 2.1154380219e+02 8.0419002446e+01 0.0000e+00 0.0000e+00
       -5  1    3    3    0  503 -2.4357883719e+01 -6.8127908751e+01 +2.1112242220e+02 2.2322519035e+02 4.7000000000e+00 0.0000e+00 1.0000e+00
      -24  1    3    3    0    0 -1.3802107491e+01 +5.1032359650e+01 +1.2129295860e+02 1.5483538892e+02 8.0419002446e+01 0.0000e+00 0.0000e+00
<mgrwt>
<rscale>  2 0.17958876E+03</rscale>
<asrwt>0</asrwt>
<pdfrwt beam="1">  1       21 0.19706893E+00 0.18008280E+03</pdfrwt>
<pdfrwt beam="2">  1       21 0.48292790E-02 0.18008280E+03</pdfrwt>
<totfact> 0.40352179E+04</totfact>
</mgrwt>
<rwgt>
<wgt id='1'> +6.4037913e+02 </wgt>
<wgt id='2'> +6.3943060e+02 </wgt>
<wgt id='3'> +5.2426848e+02 </wgt>
<wgt id='4'> +7.0092982e+02 </wgt>
<wgt id='5'> +4.6116992e+02 </wgt>
<wgt id='6'> +5.9290981e+02 </wgt>
<wgt id='7'> +5.9201495e+02 </wgt>
<wgt id='8'> +4.7922648e+02 </wgt>
<wgt id='9'> +6.5075620e+02 </wgt>
<wgt id='10'> +4.1974713e+02 </wgt>
<wgt id='11'> +5.3994112e+02 </wgt>
<wgt id='12'> +5.3911967e+02 </wgt>
<wgt id='13'> +4.3660247e+02 </wgt>
<wgt id='14'> +5.9484713e+02 </wgt>
<wgt id='15'> +3.8276713e+02 </wgt>
<wgt id='16'> +5.2015120e+02 </wgt>
<wgt id='17'> +5.1948823e+02 </wgt>
<wgt id='18'> +4.3664413e+02 </wgt>
<wgt id='19'> +5.6468984e+02 </wgt>
<wgt id='20'> +3.8865557e+02 </wgt>
<wgt id='21'> +4.8096666e+02 </wgt>
<wgt id='22'> +3.9913029e+02 </wgt>
<wgt id='23'> +5.2426848e+02 </wgt>
<wgt id='24'> +3.5374610e+02 </wgt>
<wgt id='25'> +4.3856991e+02 </wgt>
<wgt id='26'> +4.3799331e+02 </wgt>
<wgt id='27'> +3.6363030e+02 </wgt>
<wgt id='28'> +4.7922648e+02 </wgt>
<wgt id='29'> +3.2258083e+02 </wgt>
<wgt id='30'> +4.3700114e+02 </wgt>
<wgt id='31'> +4.3650176e+02 </wgt>
<wgt id='32'> +3.7071362e+02 </wgt>
<wgt id='33'> +4.7030961e+02 </wgt>
<wgt id='34'> +3.3194656e+02 </wgt>
<wgt id='35'> +4.0460760e+02 </wgt>
<wgt id='36'> +4.0413388e+02 </wgt>
<wgt id='37'> +3.3886413e+02 </wgt>
<wgt id='38'> +4.3664413e+02 </wgt>
<wgt id='39'> +3.0213075e+02 </wgt>
<wgt id='40'> +3.6846123e+02 </wgt>
<wgt id='41'> +3.6802537e+02 </wgt>
<wgt id='42'> +3.0872441e+02 </wgt>
<wgt id='43'> +3.9913029e+02 </wgt>
<wgt id='44'> +2.7551284e+02 </wgt>
<wgt id='45'> +4.8159400e+02 </wgt>
<wgt id='46'> +4.9451559e+02 </wgt>
<wgt id='47'> +4.9737607e+02 </wgt>
<wgt id='48'> +4.8008334e+02 </wgt>
<wgt id='49'> +4.4521142e+02 </wgt>
<wgt id='50'> +5.5813133e+02 </wgt>
<wgt id='51'> +4.5379936e+02 </wgt>
<wgt id='52'> +4.5068126e+02 </wgt>
<wgt id='53'> +4.8272581e+02 </wgt>
<wgt id='54'> +5.1122810e+02 </wgt>
<wgt id='55'> +5.4176245e+02 </wgt>
<wgt id='56'> +4.6271169e+02 </wgt>
<wgt id='57'> +5.1266014e+02 </wgt>
<wgt id='58'> +4.3859364e+02 </wgt>
<wgt id='59'> +5.2419228e+02 </wgt>
<wgt id='60'> +4.8452897e+02 </wgt>
<wgt id='61'> +4.2188104e+02 </wgt>
<wgt id='62'> +4.4431584e+02 </wgt>
<wgt id='63'> +5.0799124e+02 </wgt>
<wgt id='64'> +4.8350764e+02 </wgt>
<wgt id='65'> +4.3760046e+02 </wgt>
<wgt id='66'> +4.8735265e+02 </wgt>
<wgt id='67'> +4.8443836e+02 </wgt>
<wgt id='68'> +5.8249724e+02 </wgt>
<wgt id='69'> +5.1812740e+02 </wgt>
<wgt id='70'> +5.1930365e+02 </wgt>
<wgt id='71'> +4.4825052e+02 </wgt>
<wgt id='72'> +4.4411638e+02 </wgt>
<wgt id='73'> +4.3788510e+02 </wgt>
<wgt id='74'> +5.5156699e+02 </wgt>
<wgt id='75'> +5.2326252e+02 </wgt>
<wgt id='76'> +4.9559276e+02 </wgt>
<wgt id='77'> +4.5649079e+02 </wgt>
<wgt id='78'> +4.1621351e+02 </wgt>
<wgt id='79'> +5.1671085e+02 </wgt>
<wgt id='80'> +4.2786190e+02 </wgt>
<wgt id='81'> +4.9938664e+02 </wgt>
<wgt id='82'> +4.7202292e+02 </wgt>
<wgt id='83'> +4.7303055e+02 </wgt>
<wgt id='84'> +4.6800044e+02 </wgt>
<wgt id='85'> +4.3603937e+02 </wgt>
<wgt id='86'> +5.0489327e+02 </wgt>
<wgt id='87'> +4.7543513e+02 </wgt>
<wgt id='88'> +4.6811345e+02 </wgt>
<wgt id='89'> +4.1209957e+02 </wgt>
<wgt id='90'> +4.5024430e+02 </wgt>
<wgt id='91'> +4.2092903e+02 </wgt>
<wgt id='92'> +4.5391985e+02 </wgt>
<wgt id='93'> +4.8749943e+02 </wgt>
<wgt id='94'> +4.4323112e+02 </wgt>
<wgt id='95'> +5.0717164e+02 </wgt>
<wgt id='96'> +5.0173362e+02 </wgt>
<wgt id='97'> +4.3713297e+02 </wgt>
<wgt id='98'> +5.1765996e+02 </wgt>
<wgt id='99'> +4.0724664e+02 </wgt>
<wgt id='100'> +3.7140401e+02 </wgt>
<wgt id='101'> +5.5928831e+02 </wgt>
<wgt id='102'> +5.4024421e+02 </wgt>
<wgt id='103'> +4.6022988e+02 </wgt>
<wgt id='104'> +5.1338987e+02 </wgt>
<wgt id='105'> +4.9337515e+02 </wgt>
<wgt id='106'> +4.7051328e+02 </wgt>
<wgt id='107'> +4.6740422e+02 </wgt>
<wgt id='108'> +4.5225011e+02 </wgt>
<wgt id='109'> +4.7807495e+02 </wgt>
<wgt id='110'> +4.4456312e+02 </wgt>
<wgt id='111'> +4.6818628e+02 </wgt>
<wgt id='112'> +5.0191024e+02 </wgt>
<wgt id='113'> +5.0780622e+02 </wgt>
<wgt id='114'> +5.0021487e+02 </wgt>
<wgt id='115'> +4.4068585e+02 </wgt>
<wgt id='116'> +5.2687001e+02 </wgt>
<wgt id='117'> +4.7102870e+02 </wgt>
<wgt id='118'> +4.9546938e+02 </wgt>
<wgt id='119'> +5.2856611e+02 </wgt>
<wgt id='120'> +4.8120809e+02 </wgt>
<wgt id='121'> +4.7552949e+02 </wgt>
<wgt id='122'> +4.7163228e+02 </wgt>
<wgt id='123'> +4.5854966e+02 </wgt>
<wgt id='124'> +5.4104868e+02 </wgt>
<wgt id='125'> +6.0147433e+02 </wgt>
<wgt id='126'> +4.7128563e+02 </wgt>
<wgt id='127'> +4.6091371e+02 </wgt>
<wgt id='128'> +4.6383231e+02 </wgt>
<wgt id='129'> +4.9029504e+02 </wgt>
<wgt id='130'> +4.6777732e+02 </wgt>
<wgt id='131'> +4.4354472e+02 </wgt>
<wgt id='132'> +5.2821400e+02 </wgt>
<wgt id='133'> +5.2486908e+02 </wgt>
<wgt id='134'> +5.0742286e+02 </wgt>
<wgt id='135'> +4.6102961e+02 </wgt>
<wgt id='136'> +5.6866204e+02 </wgt>
<wgt id='137'> +5.0394605e+02 </wgt>
<wgt id='138'> +4.9093979e+02 </wgt>
<wgt id='139'> +4.9688719e+02 </wgt>
<wgt id='140'> +4.6944246e+02 </wgt>
<wgt id='141'> +5.4487020e+02 </wgt>
<wgt id='142'> +3.4166187e+02 </wgt>
<wgt id='143'> +4.9477200e+02 </wgt>
<wgt id='144'> +4.3955735e+02 </wgt>
<wgt id='145'> +4.4336934e+02 </wgt>
</rwgt>
</event>
<event>
 8      1 +4.8159400e+02 1.91934900e+02 7.54677100e-03 1.15676400e-01
       21 -1    0    0  501  502 +0.0000000000e+00 +0.0000000000e+00 +2.0809349824e+03 2.0809349824e+03 0.0000000000e+00 0.0000e+00 1.0000e+00
       21 -1    0    0  502  503 -0.0000000000e+00 -0.0000000000e+00 -1.7896109340e+01 1.7896109340e+01 0.0000000000e+00 0.0000e+00 1.0000e+00
       -6  2    1    2    0  503 +8.1903111960e+01 +1.4606328181e+00 +9.1880739546e+02 9.3864051644e+02 1.7357631164e+02 0.0000e+00 0.0000e+00
        6  2    1    2  501    0 -8.1903111960e+01 -1.4606328181e+00 +1.1442314776e+03 1.1601905753e+03 1.7339620375e+02 0.0000e+00 0.0000e+00
        5  1    4    4  501    0 +1.9753933679e+00 +6.3335626352e+00 -1.7414045976e+00 8.3149675035e+00 4.7000000000e+00 0.0000e+00 -1.0000e+00
       24  1    4    4    0    0 -8.3878505328e+01 -7.7941954533e+00 +1.1459728822e+03 1.1518756078e+03 8.0419002446e+01 0.0000e+00 0.0000e+00
       -5  1    3    3    0  503 +4.2458328279e-01 -4.5435264695e+01 +9.2947156106e+01 1.0356547387e+02 4.7000000000e+00 0.0000e+00 1.0000e+00
      -24  1    3    3    0    0 +8.1478528677e+01 +4.6895897514e+01 +8.2586023935e+02 8.3507504258e+02 8.0419002446e+01 0.0000e+00 1.0000e+00
<mgrwt>
<rscale>  2 0.19189413E+03</rscale>
<asrwt>0</asrwt>
<pdfrwt beam="1">  1       21 0.32014365E+00 0.19193486E+03</pdfrwt>
<pdfrwt beam="2">  1       21 0.27532492E-02 0.19193486E+03</pdfrwt>
<totfact> 0.19060586E+04</totfact>
</mgrwt>
<rwgt>
<wgt id='1'> +6.7519621e+02 </wgt>
<wgt id='2'> +6.1331657e+02 </wgt>
<wgt id='3'> +5.4671854e+02 </wgt>
<wgt id='4'> +7.7437931e+02 </wgt>
<wgt id='5'> +4.8034348e+02 </wgt>
<wgt id='6'> +5.9108573e+02 </wgt>
<wgt id='7'> +5.3521268e+02 </wgt>
<wgt id='8'> +4.7528941e+02 </wgt>
<wgt id='9'> +6.7840029e+02 </wgt>
<wgt id='10'> +4.1707361e+02 </wgt>
<wgt id='11'> +5.1321454e+02 </wgt>
<wgt id='12'> +4.6568363e+02 </wgt>
<wgt id='13'> +4.1464247e+02 </wgt>
<wgt id='14'> +5.8976685e+02 </wgt>
<wgt id='15'> +3.6496490e+02 </wgt>
<wgt id='16'> +5.5012400e+02 </wgt>
<wgt id='17'> +5.0493527e+02 </wgt>
<wgt id='18'> +4.5557496e+02 </wgt>
<wgt id='19'> +6.2406744e+02 </wgt>
<wgt id='20'> +4.0442112e+02 </wgt>
<wgt id='21'> +4.4063338e+02 </wgt>
<wgt id='22'> +3.9605379e+02 </wgt>
<wgt id='23'> +5.4671854e+02 </wgt>
<wgt id='24'> +3.5115159e+02 </wgt>
<wgt id='25'> +4.1814754e+02 </wgt>
<wgt id='26'> +3.8339105e+02 </wgt>
<wgt id='27'> +3.4551732e+02 </wgt>
<wgt id='28'> +4.7528941e+02 </wgt>
<wgt id='29'> +3.0727910e+02 </wgt>
<wgt id='30'> +4.6309942e+02 </wgt>
<wgt id='31'> +4.2678141e+02 </wgt>
<wgt id='32'> +3.8686150e+02 </wgt>
<wgt id='33'> +5.2002900e+02 </wgt>
<wgt id='34'> +3.4517240e+02 </wgt>
<wgt id='35'> +4.0541024e+02 </wgt>
<wgt id='36'> +3.7243217e+02 </wgt>
<wgt id='37'> +3.3631779e+02 </wgt>
<wgt id='38'> +4.5557496e+02 </wgt>
<wgt id='39'> +2.9970699e+02 </wgt>
<wgt id='40'> +3.5200043e+02 </wgt>
<wgt id='41'> +3.2404980e+02 </wgt>
<wgt id='42'> +2.9340363e+02 </wgt>
<wgt id='43'> +3.9605379e+02 </wgt>
<wgt id='44'> +2.6226193e+02 </wgt>
<wgt id='45'> +4.8159400e+02 </wgt>
<wgt id='46'> +4.8659737e+02 </wgt>
<wgt id='47'> +5.7507120e+02 </wgt>
<wgt id='48'> +4.8329058e+02 </wgt>
<wgt id='49'> +4.1841150e+02 </wgt>
<wgt id='50'> +5.7250762e+02 </wgt>
<wgt id='51'> +4.6069046e+02 </wgt>
<wgt id='52'> +3.8425815e+02 </wgt>
<wgt id='53'> +5.4041883e+02 </wgt>
<wgt id='54'> +5.1163966e+02 </wgt>
<wgt id='55'> +6.1742625e+02 </wgt>
<wgt id='56'> +4.7244337e+02 </wgt>
<wgt id='57'> +5.3129717e+02 </wgt>
<wgt id='58'> +3.9776658e+02 </wgt>
<wgt id='59'> +5.2475665e+02 </wgt>
<wgt id='60'> +4.6529766e+02 </wgt>
<wgt id='61'> +3.6198221e+02 </wgt>
<wgt id='62'> +4.0797364e+02 </wgt>
<wgt id='63'> +5.1522055e+02 </wgt>
<wgt id='64'> +4.8615191e+02 </wgt>
<wgt id='65'> +3.5155068e+02 </wgt>
<wgt id='66'> +4.9939081e+02 </wgt>
<wgt id='67'> +4.6695966e+02 </wgt>
<wgt id='68'> +7.3073859e+02 </wgt>
<wgt id='69'> +5.8220451e+02 </wgt>
<wgt id='70'> +6.5535991e+02 </wgt>
<wgt id='71'> +4.0249282e+02 </wgt>
<wgt id='72'> +3.8540222e+02 </wgt>
<wgt id='73'> +4.1122815e+02 </wgt>
<wgt id='74'> +6.5615250e+02 </wgt>
<wgt id='75'> +6.2373390e+02 </wgt>
<wgt id='76'> +4.8766160e+02 </wgt>
<wgt id='77'> +4.0857000e+02 </wgt>
<wgt id='78'> +3.8316379e+02 </wgt>
<wgt id='79'> +5.6530614e+02 </wgt>
<wgt id='80'> +3.5546390e+02 </wgt>
<wgt id='81'> +5.4005013e+02 </wgt>
<wgt id='82'> +4.7097623e+02 </wgt>
<wgt id='83'> +4.7898124e+02 </wgt>
<wgt id='84'> +4.0329287e+02 </wgt>
<wgt id='85'> +3.9161470e+02 </wgt>
<wgt id='86'> +5.4081787e+02 </wgt>
<wgt id='87'> +4.4633794e+02 </wgt>
<wgt id='88'> +5.1759983e+02 </wgt>
<wgt id='89'> +2.8750721e+02 </wgt>
<wgt id='90'> +3.7984802e+02 </wgt>
<wgt id='91'> +3.4518155e+02 </wgt>
<wgt id='92'> +4.5320474e+02 </wgt>
<wgt id='93'> +5.1624825e+02 </wgt>
<wgt id='94'> +4.0870755e+02 </wgt>
<wgt id='95'> +4.9948918e+02 </wgt>
<wgt id='96'> +4.7317945e+02 </wgt>
<wgt id='97'> +3.9491821e+02 </wgt>
<wgt id='98'> +6.0939765e+02 </wgt>
<wgt id='99'> +3.5380856e+02 </wgt>
<wgt id='100'> +2.9553171e+02 </wgt>
<wgt id='101'> +5.9252943e+02 </wgt>
<wgt id='102'> +5.8263515e+02 </wgt>
<wgt id='103'> +3.9492458e+02 </wgt>
<wgt id='104'> +5.4796422e+02 </wgt>
<wgt id='105'> +4.9195867e+02 </wgt>
<wgt id='106'> +5.0219870e+02 </wgt>
<wgt id='107'> +5.0953172e+02 </wgt>
<wgt id='108'> +4.4390909e+02 </wgt>
<wgt id='109'> +4.9029261e+02 </wgt>
<wgt id='110'> +3.7076074e+02 </wgt>
<wgt id='111'> +4.4770174e+02 </wgt>
<wgt id='112'> +5.0029556e+02 </wgt>
<wgt id='113'> +6.1451080e+02 </wgt>
<wgt id='114'> +4.3997878e+02 </wgt>
<wgt id='115'> +4.6292102e+02 </wgt>
<wgt id='116'> +5.6408188e+02 </wgt>
<wgt id='117'> +5.0001873e+02 </wgt>
<wgt id='118'> +4.7442201e+02 </wgt>
<wgt id='119'> +5.2560987e+02 </wgt>
<wgt id='120'> +4.6614485e+02 </wgt>
<wgt id='121'> +4.3307979e+02 </wgt>
<wgt id='122'> +4.4778657e+02 </wgt>
<wgt id='123'> +4.1714791e+02 </wgt>
<wgt id='124'> +5.3770626e+02 </wgt>
<wgt id='125'> +7.2257110e+02 </wgt>
<wgt id='126'> +4.5013767e+02 </wgt>
<wgt id='127'> +4.2647069e+02 </wgt>
<wgt id='128'> +4.8469500e+02 </wgt>
<wgt id='129'> +4.4064404e+02 </wgt>
<wgt id='130'> +4.5510555e+02 </wgt>
<wgt id='131'> +3.9784709e+02 </wgt>
<wgt id='132'> +5.0995925e+02 </wgt>
<wgt id='133'> +5.4195972e+02 </wgt>
<wgt id='134'> +5.5707539e+02 </wgt>
<wgt id='135'> +4.4614319e+02 </wgt>
<wgt id='136'> +6.0831269e+02 </wgt>
<wgt id='137'> +5.9110378e+02 </wgt>
<wgt id='138'> +5.5381691e+02 </wgt>
<wgt id='139'> +5.0853449e+02 </wgt>
<wgt id='140'> +4.5556569e+02 </wgt>
<wgt id='141'> +6.6100762e+02 </wgt>
<wgt id='142'> +2.0037633e+02 </wgt>
<wgt id='143'> +4.8896075e+02 </wgt>
<wgt id='144'> +4.0428703e+02 </wgt>
<wgt id='145'> +4.2834491e+02 </wgt>
</rwgt>
</event>
<event>
 8      1 +4.8159400e+02 1.75312800e+02 7.54677100e-03 1.17261500e-01
       21 -1    0    0  503  502 +0.0000000000e+00 +0.0000000000e+00 +2.5537950205e+02 2.5537950205e+02 0.0000000000e+00 0.0000e+00 -1.0000e+00
       21 -1    0    0  501  503 -0.0000000000e+00 -0.0000000000e+00 -1.3097690119e+02 1.3097690119e+02 0.0000000000e+00 0.0000e+00 -1.0000e+00
        6  2    1    2  501    0 +2.5543166226e+00 -2.3308099535e+01 +5.9248515622e+00 1.7541285335e+02 1.7373765630e+02 0.0000e+00 0.0000e+00
       -6  2    1    2    0  502 -2.5543166226e+00 +2.3308099535e+01 +1.1847774930e+02 2.1094354989e+02 1.7294626946e+02 0.0000e+00 0.0000e+00
        5  1    3    3  501    0 -1.0490274084e+01 -3.2490464419e+01 -6.0678492217e+01 6.9782845645e+01 4.7000000000e+00 0.0000e+00 -1.0000e+00
       24  1    3    3    0    0 +1.3044590707e+01 +9.1823648836e+00 +6.6603343779e+01 1.0563000771e+02 8.0419002446e+01 0.0000e+00 0.0000e+00
       -5  1    4    4    0  502 -4.7422434338e+01 +4.4231899229e+01 +7.8510778900e+00 6.5491049862e+01 4.7000000000e+00 0.0000e+00 1.0000e+00
      -24  1    4    4    0    0 +4.4868117716e+01 -2.0923799693e+01 +1.1062667141e+02 1.4545250003e+02 8.0419002446e+01 0.0000e+00 0.0000e+00
<mgrwt>
<rscale>  2 0.17511637E+03</rscale>
<asrwt>0</asrwt>
<pdfrwt beam="1">  1       21 0.39289154E-01 0.17531276E+03</pdfrwt>
<pdfrwt beam="2">  1       21 0.20150293E-01 0.17531276E+03</pdfrwt>
<totfact> 0.14298068E+05</totfact>
</mgrwt>
<rwgt>
<wgt id='1'> +6.1165980e+02 </wgt>
<wgt id='2'> +6.0186845e+02 </wgt>
<wgt id='3'> +5.2208104e+02 </wgt>
<wgt id='4'> +6.6620336e+02 </wgt>
<wgt id='5'> +4.7469038e+02 </wgt>
<wgt id='6'> +5.9362610e+02 </wgt>
<wgt id='7'> +5.8345324e+02 </wgt>
<wgt id='8'> +4.9940209e+02 </wgt>
<wgt id='9'> +6.4914802e+02 </wgt>
<wgt id='10'> +4.5098372e+02 </wgt>
<wgt id='11'> +5.6431892e+02 </wgt>
<wgt id='12'> +5.5430081e+02 </wgt>
<wgt id='13'> +4.7368818e+02 </wgt>
<wgt id='14'> +6.2094933e+02 </wgt>
<wgt id='15'> +4.2752029e+02 </wgt>
<wgt id='16'> +4.9622429e+02 </wgt>
<wgt id='17'> +4.8934850e+02 </wgt>
<wgt id='18'> +4.3363105e+02 </wgt>
<wgt id='19'> +5.3579790e+02 </wgt>
<wgt id='20'> +3.9903543e+02 </wgt>
<wgt id='21'> +4.7437603e+02 </wgt>
<wgt id='22'> +4.1479433e+02 </wgt>
<wgt id='23'> +5.2208104e+02 </wgt>
<wgt id='24'> +3.7910708e+02 </wgt>
<wgt id='25'> +4.5781781e+02 </wgt>
<wgt id='26'> +4.5067368e+02 </wgt>
<wgt id='27'> +3.9343682e+02 </wgt>
<wgt id='28'> +4.9940209e+02 </wgt>
<wgt id='29'> +3.5938319e+02 </wgt>
<wgt id='30'> +4.1655393e+02 </wgt>
<wgt id='31'> +4.1138247e+02 </wgt>
<wgt id='32'> +3.6777161e+02 </wgt>
<wgt id='33'> +4.4502403e+02 </wgt>
<wgt id='34'> +3.4024363e+02 </wgt>
<wgt id='35'> +4.0427258e+02 </wgt>
<wgt id='36'> +3.9879551e+02 </wgt>
<wgt id='37'> +3.5179578e+02 </wgt>
<wgt id='38'> +4.3363105e+02 </wgt>
<wgt id='39'> +3.2325142e+02 </wgt>
<wgt id='40'> +3.8431374e+02 </wgt>
<wgt id='41'> +3.7886956e+02 </wgt>
<wgt id='42'> +3.3368203e+02 </wgt>
<wgt id='43'> +4.1479433e+02 </wgt>
<wgt id='44'> +3.0643354e+02 </wgt>
<wgt id='45'> +4.8159400e+02 </wgt>
<wgt id='46'> +4.7724407e+02 </wgt>
<wgt id='47'> +4.9575565e+02 </wgt>
<wgt id='48'> +4.8010578e+02 </wgt>
<wgt id='49'> +4.8103368e+02 </wgt>
<wgt id='50'> +5.4839342e+02 </wgt>
<wgt id='51'> +4.7241013e+02 </wgt>
<wgt id='52'> +4.7792235e+02 </wgt>
<wgt id='53'> +4.9062839e+02 </wgt>
<wgt id='54'> +4.8423981e+02 </wgt>
<wgt id='55'> +4.3211044e+02 </wgt>
<wgt id='56'> +4.5346715e+02 </wgt>
<wgt id='57'> +4.6907040e+02 </wgt>
<wgt id='58'> +4.8920310e+02 </wgt>
<wgt id='59'> +4.7004533e+02 </wgt>
<wgt id='60'> +4.5812288e+02 </wgt>
<wgt id='61'> +4.7831627e+02 </wgt>
<wgt id='62'> +4.7450513e+02 </wgt>
<wgt id='63'> +4.8199441e+02 </wgt>
<wgt id='64'> +4.8132247e+02 </wgt>
<wgt id='65'> +5.6706316e+02 </wgt>
<wgt id='66'> +4.6933424e+02 </wgt>
<wgt id='67'> +4.8594222e+02 </wgt>
<wgt id='68'> +5.1006989e+02 </wgt>
<wgt id='69'> +4.6412384e+02 </wgt>
<wgt id='70'> +4.7465297e+02 </wgt>
<wgt id='71'> +4.9096571e+02 </wgt>
<wgt id='72'> +4.7686750e+02 </wgt>
<wgt id='73'> +4.7768761e+02 </wgt>
<wgt id='74'> +4.9078116e+02 </wgt>
<wgt id='75'> +4.9072338e+02 </wgt>
<wgt id='76'> +4.6896621e+02 </wgt>
<wgt id='77'> +4.6145554e+02 </wgt>
<wgt id='78'> +4.8704183e+02 </wgt>
<wgt id='79'> +4.5940728e+02 </wgt>
<wgt id='80'> +4.7941941e+02 </wgt>
<wgt id='81'> +4.7471050e+02 </wgt>
<wgt id='82'> +4.9718263e+02 </wgt>
<wgt id='83'> +4.8889433e+02 </wgt>
<wgt id='84'> +5.2565045e+02 </wgt>
<wgt id='85'> +5.0643951e+02 </wgt>
<wgt id='86'> +4.7556348e+02 </wgt>
<wgt id='87'> +4.7996194e+02 </wgt>
<wgt id='88'> +4.8826042e+02 </wgt>
<wgt id='89'> +4.9081403e+02 </wgt>
<wgt id='90'> +4.8539525e+02 </wgt>
<wgt id='91'> +5.1347943e+02 </wgt>
<wgt id='92'> +4.5221247e+02 </wgt>
<wgt id='93'> +4.7085106e+02 </wgt>
<wgt id='94'> +4.8253556e+02 </wgt>
<wgt id='95'> +4.6425872e+02 </wgt>
<wgt id='96'> +5.1370430e+02 </wgt>
<wgt id='97'> +4.9177350e+02 </wgt>
<wgt id='98'> +4.5861085e+02 </wgt>
<wgt id='99'> +4.6983963e+02 </wgt>
<wgt id='100'> +4.8607149e+02 </wgt>
<wgt id='101'> +4.9627050e+02 </wgt>
<wgt id='102'> +4.5996602e+02 </wgt>
<wgt id='103'> +5.1865368e+02 </wgt>
<wgt id='104'> +4.7819703e+02 </wgt>
<wgt id='105'> +5.0374634e+02 </wgt>
<wgt id='106'> +4.5118005e+02 </wgt>
<wgt id='107'> +4.8364072e+02 </wgt>
<wgt id='108'> +4.3962416e+02 </wgt>
<wgt id='109'> +4.5746443e+02 </wgt>
<wgt id='110'> +4.8420584e+02 </wgt>
<wgt id='111'> +4.7191388e+02 </wgt>
<wgt id='112'> +4.6410412e+02 </wgt>
<wgt id='113'> +4.4629130e+02 </wgt>
<wgt id='114'> +4.8808841e+02 </wgt>
<wgt id='115'> +4.9033066e+02 </wgt>
<wgt id='116'> +4.7422578e+02 </wgt>
<wgt id='117'> +4.9067238e+02 </wgt>
<wgt id='118'> +4.8735340e+02 </wgt>
<wgt id='119'> +4.6546920e+02 </wgt>
<wgt id='120'> +4.8439087e+02 </wgt>
<wgt id='121'> +4.7073623e+02 </wgt>
<wgt id='122'> +4.7636389e+02 </wgt>
<wgt id='123'> +4.8586376e+02 </wgt>
<wgt id='124'> +5.0579825e+02 </wgt>
<wgt id='125'> +5.0769937e+02 </wgt>
<wgt id='126'> +4.9694218e+02 </wgt>
<wgt id='127'> +4.9327868e+02 </wgt>
<wgt id='128'> +4.5167888e+02 </wgt>
<wgt id='129'> +5.4212436e+02 </wgt>
<wgt id='130'> +4.8373459e+02 </wgt>
<wgt id='131'> +5.1586975e+02 </wgt>
<wgt id='132'> +4.7174904e+02 </wgt>
<wgt id='133'> +4.7326063e+02 </wgt>
<wgt id='134'> +4.5235602e+02 </wgt>
<wgt id='135'> +4.9394680e+02 </wgt>
<wgt id='136'> +4.5819273e+02 </wgt>
<wgt id='137'> +4.5174590e+02 </wgt>
<wgt id='138'> +4.3245306e+02 </wgt>
<wgt id='139'> +4.8815493e+02 </wgt>
<wgt id='140'> +5.1455445e+02 </wgt>
<wgt id='141'> +4.7911726e+02 </wgt>
<wgt id='142'> +4.9132429e+02 </wgt>
<wgt id='143'> +4.7491683e+02 </wgt>
<wgt id='144'> +4.8500540e+02 </wgt>
<wgt id='145'> +4.8257600e+02 </wgt>
</rwgt>
</event>
<event>
 8      1 +4.8159400e+02 2.24596900e+02 7.54677100e-03 1.13144300e-01
       21 -1    0    0  503  502 +0.0000000000e+00 +0.0000000000e+00 +1.9226752981e+03 1.9226752981e+03 0.0000000000e+00 0.0000e+00 1.0000e+00
       21 -1    0    0  501  503 -0.0000000000e+00 -0.0000000000e+00 -2.6055498850e+01 2.6055498850e+01 0.0000000000e+00 0.0000e+00 1.0000e+00
        6  2    1    2  501    0 -1.1780850591e+02 +7.4647850264e+01 +8.1468126652e+02 8.4372637395e+02 1.6946233344e+02 0.0000e+00 0.0000e+00
       -6  2    1    2    0  502 +1.1780850591e+02 -7.4647850264e+01 +1.0819385327e+03 1.1050044230e+03 1.7604726822e+02 0.0000e+00 0.0000e+00
        5  1    3    3  501    0 +1.3404755497e+01 -2.6695687299e+01 +6.4367346063e+01 7.1116752101e+01 4.7000000000e+00 0.0000e+00 -1.0000e+00
       24  1    3    3    0    0 -1.3121326140e+02 +1.0134353756e+02 +7.5031392046e+02 7.7260962184e+02 8.0419002446e+01 0.0000e+00 -1.0000e+00
       -5  1    4    4    0  502 -7.5796717952e+00 -5.4338678410e+01 +5.3347123357e+02 5.3630568750e+02 4.7000000000e+00 0.0000e+00 1.0000e+00
      -24  1    4    4    0    0 +1.2538817770e+02 -2.0309171855e+01 +5.4846729917e+02 5.6869873552e+02 8.0419002446e+01 0.0000e+00 0.0000e+00
<mgrwt>
<rscale>  2 0.22330498E+03</rscale>
<asrwt>0</asrwt>
<pdfrwt beam="1">  1       21 0.29579609E+00 0.22459694E+03</pdfrwt>
<pdfrwt beam="2">  1       21 0.40085398E-02 0.22459694E+03</pdfrwt>
<totfact> 0.13661443E+04</totfact>
</mgrwt>
<rwgt>
<wgt id='1'> +6.6897853e+02 </wgt>
<wgt id='2'> +5.1952034e+02 </wgt>
<wgt id='3'> +4.9597100e+02 </wgt>
<wgt id='4'> +6.9043028e+02 </wgt>
<wgt id='5'> +4.8165268e+02 </wgt>
<wgt id='6'> +5.8622681e+02 </wgt>
<wgt id='7'> +4.5238452e+02 </wgt>
<wgt id='8'> +4.3219958e+02 </wgt>
<wgt id='9'> +6.0582027e+02 </wgt>
<wgt id='10'> +4.2004159e+02 </wgt>
<wgt id='11'> +5.1126019e+02 </wgt>
<wgt id='12'> +3.9667194e+02 </wgt>
<wgt id='13'> +3.7936616e+02 </wgt>
<wgt id='14'> +5.2792455e+02 </wgt>
<wgt id='15'> +3.6893283e+02 </wgt>
<wgt id='16'> +5.4957576e+02 </wgt>
<wgt id='17'> +4.3720816e+02 </wgt>
<wgt id='18'> +4.1839135e+02 </wgt>
<wgt id='19'> +5.6523925e+02 </wgt>
<wgt id='20'> +4.0680347e+02 </wgt>
<wgt id='21'> +3.8070925e+02 </wgt>
<wgt id='22'> +3.6459504e+02 </wgt>
<wgt id='23'> +4.9597100e+02 </wgt>
<wgt id='24'> +3.5476679e+02 </wgt>
<wgt id='25'> +4.2000781e+02 </wgt>
<wgt id='26'> +3.3382371e+02 </wgt>
<wgt id='27'> +3.2002581e+02 </wgt>
<wgt id='28'> +4.3219958e+02 </wgt>
<wgt id='29'> +3.1160037e+02 </wgt>
<wgt id='30'> +4.6415106e+02 </wgt>
<wgt id='31'> +3.7304756e+02 </wgt>
<wgt id='32'> +3.5763875e+02 </wgt>
<wgt id='33'> +4.7682468e+02 </wgt>
<wgt id='34'> +3.4812437e+02 </wgt>
<wgt id='35'> +4.0673622e+02 </wgt>
<wgt id='36'> +3.2483991e+02 </wgt>
<wgt id='37'> +3.1165395e+02 </wgt>
<wgt id='38'> +4.1839135e+02 </wgt>
<wgt id='39'> +3.0359369e+02 </wgt>
<wgt id='40'> +3.5472284e+02 </wgt>
<wgt id='41'> +2.8483485e+02 </wgt>
<wgt id='42'> +2.7355639e+02 </wgt>
<wgt id='43'> +3.6459504e+02 </wgt>
<wgt id='44'> +2.6665378e+02 </wgt>
<wgt id='45'> +4.8159400e+02 </wgt>
<wgt id='46'> +4.8751161e+02 </wgt>
<wgt id='47'> +5.5716101e+02 </wgt>
<wgt id='48'> +4.8226024e+02 </wgt>
<wgt id='49'> +4.2195620e+02 </wgt>
<wgt id='50'> +5.6778923e+02 </wgt>
<wgt id='51'> +4.5492286e+02 </wgt>
<wgt id='52'> +3.9560827e+02 </wgt>
<wgt id='53'> +5.2794834e+02 </wgt>
<wgt id='54'> +5.1380589e+02 </wgt>
<wgt id='55'> +6.0435735e+02 </wgt>
<wgt id='56'> +4.7245533e+02 </wgt>
<wgt id='57'> +5.2554852e+02 </wgt>
<wgt id='58'> +4.0501943e+02 </wgt>
<wgt id='59'> +5.2234775e+02 </wgt>
<wgt id='60'> +4.6448712e+02 </wgt>
<wgt id='61'> +3.7098174e+02 </wgt>
<wgt id='62'> +4.1305091e+02 </wgt>
<wgt id='63'> +5.1524772e+02 </wgt>
<wgt id='64'> +4.8532078e+02 </wgt>
<wgt id='65'> +3.6741775e+02 </wgt>
<wgt id='66'> +5.0020643e+02 </wgt>
<wgt id='67'> +4.7496735e+02 </wgt>
<wgt id='68'> +6.9690612e+02 </wgt>
<wgt id='69'> +5.7543115e+02 </wgt>
<wgt id='70'> +6.2386725e+02 </wgt>
<wgt id='71'> +4.0988350e+02 </wgt>
<wgt id='72'> +3.9588093e+02 </wgt>
<wgt id='73'> +4.1737957e+02 </wgt>
<wgt id='74'> +6.3245859e+02 </wgt>
<wgt id='75'> +6.0365640e+02 </wgt>
<wgt id='76'> +4.9233022e+02 </wgt>
<wgt id='77'> +4.1668883e+02 </wgt>
<wgt id='78'> +3.8741627e+02 </wgt>
<wgt id='79'> +5.5719927e+02 </wgt>
<wgt id='80'> +3.7237585e+02 </wgt>
<wgt id='81'> +5.3481825e+02 </wgt>
<wgt id='82'> +4.7675306e+02 </wgt>
<wgt id='83'> +4.7949731e+02 </wgt>
<wgt id='84'> +4.2041028e+02 </wgt>
<wgt id='85'> +3.9714401e+02 </wgt>
<wgt id='86'> +5.3756114e+02 </wgt>
<wgt id='87'> +4.5212029e+02 </wgt>
<wgt id='88'> +5.0459995e+02 </wgt>
<wgt id='89'> +3.0913476e+02 </wgt>
<wgt id='90'> +3.9088968e+02 </wgt>
<wgt id='91'> +3.5810228e+02 </wgt>
<wgt id='92'> +4.5548175e+02 </wgt>
<wgt id='93'> +5.0715701e+02 </wgt>
<wgt id='94'> +4.1876286e+02 </wgt>
<wgt id='95'> +5.0120344e+02 </wgt>
<wgt id='96'> +4.8635102e+02 </wgt>
<wgt id='97'> +4.0221476e+02 </wgt>
<wgt id='98'> +5.9053717e+02 </wgt>
<wgt id='99'> +3.6099138e+02 </wgt>
<wgt id='100'> +3.0755270e+02 </wgt>
<wgt id='101'> +5.8320041e+02 </wgt>
<wgt id='102'> +5.7224906e+02 </wgt>
<wgt id='103'> +4.0464937e+02 </wgt>
<wgt id='104'> +5.4496234e+02 </wgt>
<wgt id='105'> +4.9096453e+02 </wgt>
<wgt id='106'> +4.9707566e+02 </wgt>
<wgt id='107'> +5.0184396e+02 </wgt>
<wgt id='108'> +4.4962993e+02 </wgt>
<wgt id='109'> +4.8630277e+02 </wgt>
<wgt id='110'> +3.8700493e+02 </wgt>
<wgt id='111'> +4.5189020e+02 </wgt>
<wgt id='112'> +5.0417871e+02 </wgt>
<wgt id='113'> +5.9342183e+02 </wgt>
<wgt id='114'> +4.6558634e+02 </wgt>
<wgt id='115'> +4.5865403e+02 </wgt>
<wgt id='116'> +5.5625199e+02 </wgt>
<wgt id='117'> +4.9299508e+02 </wgt>
<wgt id='118'> +4.7615473e+02 </wgt>
<wgt id='119'> +5.3483480e+02 </wgt>
<wgt id='120'> +4.7178587e+02 </wgt>
<wgt id='121'> +4.3997780e+02 </wgt>
<wgt id='122'> +4.5321832e+02 </wgt>
<wgt id='123'> +4.2490172e+02 </wgt>
<wgt id='124'> +5.3753795e+02 </wgt>
<wgt id='125'> +6.9624803e+02 </wgt>
<wgt id='126'> +4.5379891e+02 </wgt>
<wgt id='127'> +4.3033552e+02 </wgt>
<wgt id='128'> +4.8509673e+02 </wgt>
<wgt id='129'> +4.4877401e+02 </wgt>
<wgt id='130'> +4.7303485e+02 </wgt>
<wgt id='131'> +4.0351002e+02 </wgt>
<wgt id='132'> +5.1212507e+02 </wgt>
<wgt id='133'> +5.3993421e+02 </wgt>
<wgt id='134'> +5.4483143e+02 </wgt>
<wgt id='135'> +4.4637594e+02 </wgt>
<wgt id='136'> +5.9940723e+02 </wgt>
<wgt id='137'> +5.7841733e+02 </wgt>
<wgt id='138'> +5.3887214e+02 </wgt>
<wgt id='139'> +5.0352319e+02 </wgt>
<wgt id='140'> +4.5975818e+02 </wgt>
<wgt id='141'> +6.3772788e+02 </wgt>
<wgt id='142'> +2.2229426e+02 </wgt>
<wgt id='143'> +4.8712180e+02 </wgt>
<wgt id='144'> +4.0952542e+02 </wgt>
<wgt id='145'> +4.3005889e+02 </wgt>
</rwgt>
</event>
<event>
 8      1 +4.8159400e+02 1.84669400e+02 7.54677100e-03 1.16342300e-01
       21 -1    0    0  503  502 +0.0000000000e+00 +0.0000000000e+00 +9.4881017217e+02 9.4881017217e+02 0.0000000000e+00 0.0000e+00 -1.0000e+00
       21 -1    0    0  501  503 -0.0000000000e+00 -0.0000000000e+00 -6.1682438751e+01 6.1682438751e+01 0.0000000000e+00 0.0000e+00 -1.0000e+00
        6  2    1    2  501    0 +4.4884641139e+01 -4.4916917420e+01 +1.1703672070e+02 2.1863302434e+02 1.7340889498e+02 0.0000e+00 0.0000e+00
       -6  2    1    2    0  502 -4.4884641139e+01 +4.4916917420e+01 +7.7009101272e+02 7.9185958659e+02 1.7311636700e+02 0.0000e+00 0.0000e+00
        5  1    3    3  501    0 -3.1244750299e+01 +4.5222501445e+00 +8.8454910572e+01 9.4037473232e+01 4.7000000000e+00 0.0000e+00 -1.0000e+00
       24  1    3    3    0    0 +7.6129391438e+01 -4.9439167564e+01 +2.8581810132e+01 1.2459555110e+02 8.0419002446e+01 0.0000e+00 -1.0000e+00
       -5  1    4    4    0  502 +3.8852289322e+01 +2.2686115886e+01 +8.1645683360e+01 9.3339529948e+01 4.7000000000e+00 0.0000e+00 1.0000e+00
      -24  1    4    4    0    0 -8.3736930461e+01 +2.2230801534e+01 +6.8844532936e+02 6.9852005664e+02 8.0419002446e+01 0.0000e+00 0.0000e+00
<mgrwt>
<rscale>  2 0.18460074E+03</rscale>
<asrwt>0</asrwt>
<pdfrwt beam="1">  1       21 0.14597079E+00 0.18466945E+03</pdfrwt>
<pdfrwt beam="2">  1       21 0.94896067E-02 0.18466945E+03</pdfrwt>
<totfact> 0.28712932E+04</totfact>
</mgrwt>
<rwgt>
<wgt id='1'> +6.3556668e+02 </wgt>
<wgt id='2'> +5.3476208e+02 </wgt>
<wgt id='3'> +5.1135793e+02 </wgt>
<wgt id='4'> +6.7753442e+02 </wgt>
<wgt id='5'> +4.3423821e+02 </wgt>
<wgt id='6'> +5.9214250e+02 </wgt>
<wgt id='7'> +4.9244497e+02 </wgt>
<wgt id='8'> +4.6955411e+02 </wgt>
<wgt id='9'> +6.3291607e+02 </wgt>
<wgt id='10'> +3.9794164e+02 </wgt>
<wgt id='11'> +5.4263311e+02 </wgt>
<wgt id='12'> +4.5140683e+02 </wgt>
<wgt id='13'> +4.3052142e+02 </wgt>
<wgt id='14'> +5.8117480e+02 </wgt>
<wgt id='15'> +3.6523934e+02 </wgt>
<wgt id='16'> +5.1691122e+02 </wgt>
<wgt id='17'> +4.4472390e+02 </wgt>
<wgt id='18'> +4.2760884e+02 </wgt>
<wgt id='19'> +5.4740686e+02 </wgt>
<wgt id='20'> +3.6732663e+02 </wgt>
<wgt id='21'> +4.0953175e+02 </wgt>
<wgt id='22'> +3.9265156e+02 </wgt>
<wgt id='23'> +5.1135793e+02 </wgt>
<wgt id='24'> +3.3662298e+02 </wgt>
<wgt id='25'> +4.4132764e+02 </wgt>
<wgt id='26'> +3.7540322e+02 </wgt>
<wgt id='27'> +3.6001155e+02 </wgt>
<wgt id='28'> +4.6955411e+02 </wgt>
<wgt id='29'> +3.0895977e+02 </wgt>
<wgt id='30'> +4.3465051e+02 </wgt>
<wgt id='31'> +3.7736068e+02 </wgt>
<wgt id='32'> +3.6362667e+02 </wgt>
<wgt id='33'> +4.5775376e+02 </wgt>
<wgt id='34'> +3.1476636e+02 </wgt>
<wgt id='35'> +4.0495364e+02 </wgt>
<wgt id='36'> +3.4749916e+02 </wgt>
<wgt id='37'> +3.3389998e+02 </wgt>
<wgt id='38'> +4.2760884e+02 </wgt>
<wgt id='39'> +2.8845605e+02 </wgt>
<wgt id='40'> +3.7109523e+02 </wgt>
<wgt id='41'> +3.1854014e+02 </wgt>
<wgt id='42'> +3.0614382e+02 </wgt>
<wgt id='43'> +3.9265156e+02 </wgt>
<wgt id='44'> +2.6475113e+02 </wgt>
<wgt id='45'> +4.8159400e+02 </wgt>
<wgt id='46'> +4.9487824e+02 </wgt>
<wgt id='47'> +4.9373281e+02 </wgt>
<wgt id='48'> +4.8253471e+02 </wgt>
<wgt id='49'> +4.6059048e+02 </wgt>
<wgt id='50'> +5.7025160e+02 </wgt>
<wgt id='51'> +4.6195917e+02 </wgt>
<wgt id='52'> +4.7107204e+02 </wgt>
<wgt id='53'> +4.7528880e+02 </wgt>
<wgt id='54'> +5.0040246e+02 </wgt>
<wgt id='55'> +4.9361070e+02 </wgt>
<wgt id='56'> +4.4672644e+02 </wgt>
<wgt id='57'> +4.9937419e+02 </wgt>
<wgt id='58'> +4.5584086e+02 </wgt>
<wgt id='59'> +5.1493785e+02 </wgt>
<wgt id='60'> +4.8506038e+02 </wgt>
<wgt id='61'> +4.2567878e+02 </wgt>
<wgt id='62'> +4.6075802e+02 </wgt>
<wgt id='63'> +4.9365942e+02 </wgt>
<wgt id='64'> +4.7750767e+02 </wgt>
<wgt id='65'> +4.9253031e+02 </wgt>
<wgt id='66'> +4.7839370e+02 </wgt>
<wgt id='67'> +4.8358895e+02 </wgt>
<wgt id='68'> +5.5062361e+02 </wgt>
<wgt id='69'> +4.9507893e+02 </wgt>
<wgt id='70'> +4.8938756e+02 </wgt>
<wgt id='71'> +4.7135705e+02 </wgt>
<wgt id='72'> +4.5806707e+02 </wgt>
<wgt id='73'> +4.5202101e+02 </wgt>
<wgt id='74'> +5.2560270e+02 </wgt>
<wgt id='75'> +5.0137405e+02 </wgt>
<wgt id='76'> +4.8628039e+02 </wgt>
<wgt id='77'> +4.6814339e+02 </wgt>
<wgt id='78'> +4.3914262e+02 </wgt>
<wgt id='79'> +4.9240596e+02 </wgt>
<wgt id='80'> +4.5137227e+02 </wgt>
<wgt id='81'> +4.8165473e+02 </wgt>
<wgt id='82'> +4.6549518e+02 </wgt>
<wgt id='83'> +4.7968127e+02 </wgt>
<wgt id='84'> +4.9583992e+02 </wgt>
<wgt id='85'> +4.6544858e+02 </wgt>
<wgt id='86'> +4.9141149e+02 </wgt>
<wgt id='87'> +4.8221361e+02 </wgt>
<wgt id='88'> +4.7459757e+02 </wgt>
<wgt id='89'> +4.5838482e+02 </wgt>
<wgt id='90'> +4.7693336e+02 </wgt>
<wgt id='91'> +4.6124074e+02 </wgt>
<wgt id='92'> +4.4599843e+02 </wgt>
<wgt id='93'> +4.8226172e+02 </wgt>
<wgt id='94'> +4.5575506e+02 </wgt>
<wgt id='95'> +4.9379179e+02 </wgt>
<wgt id='96'> +5.0705002e+02 </wgt>
<wgt id='97'> +4.5883848e+02 </wgt>
<wgt id='98'> +4.8945473e+02 </wgt>
<wgt id='99'> +4.3442695e+02 </wgt>
<wgt id='100'> +4.1260006e+02 </wgt>
<wgt id='101'> +5.4721435e+02 </wgt>
<wgt id='102'> +5.1798967e+02 </wgt>
<wgt id='103'> +4.9458197e+02 </wgt>
<wgt id='104'> +4.9717921e+02 </wgt>
<wgt id='105'> +4.9633642e+02 </wgt>
<wgt id='106'> +4.5153892e+02 </wgt>
<wgt id='107'> +4.5802224e+02 </wgt>
<wgt id='108'> +4.3591551e+02 </wgt>
<wgt id='109'> +4.6544931e+02 </wgt>
<wgt id='110'> +4.6429147e+02 </wgt>
<wgt id='111'> +4.7020077e+02 </wgt>
<wgt id='112'> +4.7619067e+02 </wgt>
<wgt id='113'> +4.6925116e+02 </wgt>
<wgt id='114'> +4.8465363e+02 </wgt>
<wgt id='115'> +4.4647937e+02 </wgt>
<wgt id='116'> +5.1176538e+02 </wgt>
<wgt id='117'> +4.7138076e+02 </wgt>
<wgt id='118'> +5.0358082e+02 </wgt>
<wgt id='119'> +4.9510862e+02 </wgt>
<wgt id='120'> +4.7713620e+02 </wgt>
<wgt id='121'> +4.7835358e+02 </wgt>
<wgt id='122'> +4.7553967e+02 </wgt>
<wgt id='123'> +4.7471170e+02 </wgt>
<wgt id='124'> +5.4021993e+02 </wgt>
<wgt id='125'> +5.6487071e+02 </wgt>
<wgt id='126'> +4.8462767e+02 </wgt>
<wgt id='127'> +4.8047306e+02 </wgt>
<wgt id='128'> +4.4597512e+02 </wgt>
<wgt id='129'> +5.1956820e+02 </wgt>
<wgt id='130'> +4.6567788e+02 </wgt>
<wgt id='131'> +4.7566887e+02 </wgt>
<wgt id='132'> +5.2162512e+02 </wgt>
<wgt id='133'> +5.0956274e+02 </wgt>
<wgt id='134'> +4.8615370e+02 </wgt>
<wgt id='135'> +4.7581475e+02 </wgt>
<wgt id='136'> +5.3404535e+02 </wgt>
<wgt id='137'> +4.7653234e+02 </wgt>
<wgt id='138'> +4.6887908e+02 </wgt>
<wgt id='139'> +4.9666728e+02 </wgt>
<wgt id='140'> +4.8185963e+02 </wgt>
<wgt id='141'> +5.1082436e+02 </wgt>
<wgt id='142'> +4.0560293e+02 </wgt>
<wgt id='143'> +4.9559876e+02 </wgt>
<wgt id='144'> +4.5737511e+02 </wgt>
<wgt id='145'> +4.6225903e+02 </wgt>
</rwgt>
</event>
<event>
 8      1 +4.8159400e+02 1.96925500e+02 7.54677100e-03 1.15317900e-01
       21 -1    0    0  501  502 +0.0000000000e+00 +0.0000000000e+00 +2.2083843200e+02 2.2083843200e+02 0.0000000000e+00 0.0000e+00 -1.0000e+00
       21 -1    0    0  502  503 -0.0000000000e+00 -0.0000000000e+00 -3.9807697505e+02 3.9807697505e+02 0.0000000000e+00 0.0000e+00 -1.0000e+00
       -6  2    1    2    0  503 -6.7422835449e+01 +4.7346582728e+01 -3.2132128091e+02 3.7490823410e+02 1.7470340808e+02 0.0000e+00 0.0000e+00
        6  2    1    2  501    0 +6.7422835449e+01 -4.7346582728e+01 +1.4408273786e+02 2.4400717296e+02 1.7886343245e+02 0.0000e+00 0.0000e+00
        5  1    4    4  501    0 +3.3608964802e+01 -9.2058706294e+01 +6.1213222212e+01 1.1564392113e+02 4.7000000000e+00 0.0000e+00 -1.0000e+00
       24  1    4    4    0    0 +3.3813870646e+01 +4.4712123567e+01 +8.2869515651e+01 1.2836325183e+02 8.0419002446e+01 0.0000e+00 -1.0000e+00
       -5  1    3    3    0  503 -1.7722038607e+01 -5.2523837806e+01 -9.3631795157e+01 1.0891201612e+02 4.7000000000e+00 0.0000e+00 1.0000e+00
      -24  1    3    3    0    0 -4.9700796842e+01 +9.9870420533e+01 -2.2768948576e+02 2.6599621799e+02 8.0419002446e+01 0.0000e+00 0.0000e+00
<mgrwt>
<rscale>  2 0.19597603E+03</rscale>
<asrwt>0</asrwt>
<pdfrwt beam="1">  1       21 0.33975143E-01 0.19692553E+03</pdfrwt>
<pdfrwt beam="2">  1       21 0.61242612E-01 0.19692553E+03</pdfrwt>
<totfact> 0.20642353E+04</totfact>
</mgrwt>
<rwgt>
<wgt id='1'> +6.3242297e+02 </wgt>
<wgt id='2'> +5.0733086e+02 </wgt>
<wgt id='3'> +4.8311329e+02 </wgt>
<wgt id='4'> +6.3445983e+02 </wgt>
<wgt id='5'> +4.1298704e+02 </wgt>
<wgt id='6'> +5.9047236e+02 </wgt>
<wgt id='7'> +4.6721318e+02 </wgt>
<wgt id='8'> +4.4446830e+02 </wgt>
<wgt id='9'> +5.9253824e+02 </wgt>
<wgt id='10'> +3.8029733e+02 </wgt>
<wgt id='11'> +5.4322265e+02 </wgt>
<wgt id='12'> +4.3038322e+02 </wgt>
<wgt id='13'> +4.0956763e+02 </wgt>
<wgt id='14'> +5.4514018e+02 </wgt>
<wgt id='15'> +3.5085644e+02 </wgt>
<wgt id='16'> +5.1580925e+02 </wgt>
<wgt id='17'> +4.2554923e+02 </wgt>
<wgt id='18'> +4.0684847e+02 </wgt>
<wgt id='19'> +5.1729316e+02 </wgt>
<wgt id='20'> +3.5075423e+02 </wgt>
<wgt id='21'> +3.9189851e+02 </wgt>
<wgt id='22'> +3.7430402e+02 </wgt>
<wgt id='23'> +4.8311329e+02 </wgt>
<wgt id='24'> +3.2299051e+02 </wgt>
<wgt id='25'> +4.4305676e+02 </wgt>
<wgt id='26'> +3.6100554e+02 </wgt>
<wgt id='27'> +3.4491281e+02 </wgt>
<wgt id='28'> +4.4446830e+02 </wgt>
<wgt id='29'> +2.9798606e+02 </wgt>
<wgt id='30'> +4.3446038e+02 </wgt>
<wgt id='31'> +3.6241172e+02 </wgt>
<wgt id='32'> +3.4729827e+02 </wgt>
<wgt id='33'> +4.3563267e+02 </wgt>
<wgt id='34'> +3.0159656e+02 </wgt>
<wgt id='35'> +4.0564125e+02 </wgt>
<wgt id='36'> +3.3375366e+02 </wgt>
<wgt id='37'> +3.1951734e+02 </wgt>
<wgt id='38'> +4.0684847e+02 </wgt>
<wgt id='39'> +2.7772389e+02 </wgt>
<wgt id='40'> +3.7318176e+02 </wgt>
<wgt id='41'> +3.0744419e+02 </wgt>
<wgt id='42'> +2.9442811e+02 </wgt>
<wgt id='43'> +3.7430402e+02 </wgt>
<wgt id='44'> +2.5622377e+02 </wgt>
<wgt id='45'> +4.8159400e+02 </wgt>
<wgt id='46'> +4.8852623e+02 </wgt>
<wgt id='47'> +5.0263347e+02 </wgt>
<wgt id='48'> +4.8720312e+02 </wgt>
<wgt id='49'> +4.7976754e+02 </wgt>
<wgt id='50'> +5.8282532e+02 </wgt>
<wgt id='51'> +4.7201356e+02 </wgt>
<wgt id='52'> +4.8067529e+02 </wgt>
<wgt id='53'> +4.8172041e+02 </wgt>
<wgt id='54'> +4.8480195e+02 </wgt>
<wgt id='55'> +4.2942150e+02 </wgt>
<wgt id='56'> +4.3964161e+02 </wgt>
<wgt id='57'> +4.6924735e+02 </wgt>
<wgt id='58'> +4.7824854e+02 </wgt>
<wgt id='59'> +4.8270856e+02 </wgt>
<wgt id='60'> +4.6871763e+02 </wgt>
<wgt id='61'> +4.5259491e+02 </wgt>
<wgt id='62'> +4.7624313e+02 </wgt>
<wgt id='63'> +4.8200337e+02 </wgt>
<wgt id='64'> +4.7094174e+02 </wgt>
<wgt id='65'> +5.6769859e+02 </wgt>
<wgt id='66'> +4.7116929e+02 </wgt>
<wgt id='67'> +4.8579097e+02 </wgt>
<wgt id='68'> +5.2524620e+02 </wgt>
<wgt id='69'> +4.7787028e+02 </wgt>
<wgt id='70'> +4.7203022e+02 </wgt>
<wgt id='71'> +4.9034327e+02 </wgt>
<wgt id='72'> +4.5634869e+02 </wgt>
<wgt id='73'> +4.7154649e+02 </wgt>
<wgt id='74'> +5.0404821e+02 </wgt>
<wgt id='75'> +4.9426065e+02 </wgt>
<wgt id='76'> +4.6596955e+02 </wgt>
<wgt id='77'> +4.6794188e+02 </wgt>
<wgt id='78'> +4.7348673e+02 </wgt>
<wgt id='79'> +4.6606962e+02 </wgt>
<wgt id='80'> +4.7417770e+02 </wgt>
<wgt id='81'> +4.6979731e+02 </wgt>
<wgt id='82'> +4.8977929e+02 </wgt>
<wgt id='83'> +4.9493394e+02 </wgt>
<wgt id='84'> +5.3303657e+02 </wgt>
<wgt id='85'> +5.0665962e+02 </wgt>
<wgt id='86'> +4.8264819e+02 </wgt>
<wgt id='87'> +4.8418864e+02 </wgt>
<wgt id='88'> +4.9155751e+02 </wgt>
<wgt id='89'> +4.9627085e+02 </wgt>
<wgt id='90'> +4.8987637e+02 </wgt>
<wgt id='91'> +5.1012852e+02 </wgt>
<wgt id='92'> +4.3042369e+02 </wgt>
<wgt id='93'> +4.7704547e+02 </wgt>
<wgt id='94'> +4.7370952e+02 </wgt>
<wgt id='95'> +4.5955116e+02 </wgt>
<wgt id='96'> +5.2962019e+02 </wgt>
<wgt id='97'> +4.8466580e+02 </wgt>
<wgt id='98'> +4.6083832e+02 </wgt>
<wgt id='99'> +4.6398264e+02 </wgt>
<wgt id='100'> +4.6521845e+02 </wgt>
<wgt id='101'> +5.2119702e+02 </wgt>
<wgt id='102'> +4.7995391e+02 </wgt>
<wgt id='103'> +5.2947090e+02 </wgt>
<wgt id='104'> +4.8442581e+02 </wgt>
<wgt id='105'> +4.9646560e+02 </wgt>
<wgt id='106'> +4.3147545e+02 </wgt>
<wgt id='107'> +4.6385333e+02 </wgt>
<wgt id='108'> +4.1968575e+02 </wgt>
<wgt id='109'> +4.4547542e+02 </wgt>
<wgt id='110'> +4.8009475e+02 </wgt>
<wgt id='111'> +4.6492166e+02 </wgt>
<wgt id='112'> +4.5268376e+02 </wgt>
<wgt id='113'> +4.3631538e+02 </wgt>
<wgt id='114'> +4.6939058e+02 </wgt>
<wgt id='115'> +4.6969117e+02 </wgt>
<wgt id='116'> +4.9172303e+02 </wgt>
<wgt id='117'> +4.8351166e+02 </wgt>
<wgt id='118'> +5.0331551e+02 </wgt>
<wgt id='119'> +4.5964930e+02 </wgt>
<wgt id='120'> +4.7210522e+02 </wgt>
<wgt id='121'> +4.6482579e+02 </wgt>
<wgt id='122'> +4.7404667e+02 </wgt>
<wgt id='123'> +4.9013193e+02 </wgt>
<wgt id='124'> +5.2729289e+02 </wgt>
<wgt id='125'> +5.2755267e+02 </wgt>
<wgt id='126'> +5.0426189e+02 </wgt>
<wgt id='127'> +4.9949853e+02 </wgt>
<wgt id='128'> +4.3975172e+02 </wgt>
<wgt id='129'> +5.5019667e+02 </wgt>
<wgt id='130'> +4.8660643e+02 </wgt>
<wgt id='131'> +5.1537814e+02 </wgt>
<wgt id='132'> +4.8503217e+02 </wgt>
<wgt id='133'> +4.8615634e+02 </wgt>
<wgt id='134'> +4.5454348e+02 </wgt>
<wgt id='135'> +4.9399060e+02 </wgt>
<wgt id='136'> +4.6884796e+02 </wgt>
<wgt id='137'> +4.5588666e+02 </wgt>
<wgt id='138'> +4.4544617e+02 </wgt>
<wgt id='139'> +4.9512756e+02 </wgt>
<wgt id='140'> +5.0775342e+02 </wgt>
<wgt id='141'> +4.8349105e+02 </wgt>
<wgt id='142'> +4.7410629e+02 </wgt>
<wgt id='143'> +4.8177584e+02 </wgt>
<wgt id='144'> +4.7575137e+02 </wgt>
<wgt id='145'> +4.8272028e+02 </wgt>
</rwgt>
</event>
<event>
 8      1 +4.8159400e+02 1.83742200e+02 7.54677100e-03 1.16438500e-01
       21 -1    0    0  503  502 +0.0000000000e+00 +0.0000000000e+00 +3.0046132153e+02 3.0046132153e+02 0.0000000000e+00 0.0000e+00 -1.0000e+00
       21 -1    0    0  501  503 -0.0000000000e+00 -0.0000000000e+00 -2.7495383991e+02 2.7495383991e+02 0.0000000000e+00 0.0000e+00 -1.0000e+00
        6  2    1    2  501    0 -4.3812367204e+01 -4.3790806232e+01 -2.0877149647e+02 2.7767729224e+02 1.7228459785e+02 0.0000e+00 0.0000e+00
       -6  2    1    2    0  502 +4.3812367204e+01 +4.3790806232e+01 +2.3427897809e+02 2.9773786919e+02 1.7298566687e+02 0.0000e+00 0.0000e+00
        5  1    3    3  501    0 +5.0967614419e+01 -3.5997449325e+00 -7.3355716681e+01 8.9519869599e+01 4.7000000000e+00 0.0000e+00 -1.0000e+00
       24  1    3    3    0    0 -9.4779981624e+01 -4.0191061299e+01 -1.3541577979e+02 1.8815742264e+02 8.0419002446e+01 0.0000e+00 0.0000e+00
       -5  1    4    4    0  502 -1.6144261741e+01 -4.0470527368e+01 +1.0457850087e+02 1.1338983031e+02 4.7000000000e+00 0.0000e+00 1.0000e+00
      -24  1    4    4    0    0 +5.9956628945e+01 +8.4261333600e+01 +1.2970047722e+02 1.8434803888e+02 8.0419002446e+01 0.0000e+00 0.0000e+00
<mgrwt>
<rscale>  2 0.18357702E+03</rscale>
<asrwt>0</asrwt>
<pdfrwt beam="1">  1       21 0.46224819E-01 0.18374221E+03</pdfrwt>
<pdfrwt beam="2">  1       21 0.42300591E-01 0.18374221E+03</pdfrwt>
<totfact> 0.24234733E+04</totfact>
</mgrwt>
<rwgt>
<wgt id='1'> +6.3145277e+02 </wgt>
<wgt id='2'> +5.0532496e+02 </wgt>
<wgt id='3'> +4.8689158e+02 </wgt>
<wgt id='4'> +6.3890808e+02 </wgt>
<wgt id='5'> +4.0799941e+02 </wgt>
<wgt id='6'> +5.9228595e+02 </wgt>
<wgt id='7'> +4.6707024e+02 </wgt>
<wgt id='8'> +4.4945201e+02 </wgt>
<wgt id='9'> +5.9962955e+02 </wgt>
<wgt id='10'> +3.7666453e+02 </wgt>
<wgt id='11'> +5.4660303e+02 </wgt>
<wgt id='12'> +4.3130370e+02 </wgt>
<wgt id='13'> +4.1512323e+02 </wgt>
<wgt id='14'> +5.5352098e+02 </wgt>
<wgt id='15'> +3.4830857e+02 </wgt>
<wgt id='16'> +5.1344096e+02 </wgt>
<wgt id='17'> +4.2294949e+02 </wgt>
<wgt id='18'> +4.0896994e+02 </wgt>
<wgt id='19'> +5.1878524e+02 </wgt>
<wgt id='20'> +3.4631051e+02 </wgt>
<wgt id='21'> +3.9093086e+02 </wgt>
<wgt id='22'> +3.7752216e+02 </wgt>
<wgt id='23'> +4.8689158e+02 </wgt>
<wgt id='24'> +3.1971342e+02 </wgt>
<wgt id='25'> +4.4444873e+02 </wgt>
<wgt id='26'> +3.6099480e+02 </wgt>
<wgt id='27'> +3.4868733e+02 </wgt>
<wgt id='28'> +4.4945201e+02 </wgt>
<wgt id='29'> +2.9564484e+02 </wgt>
<wgt id='30'> +4.3165962e+02 </wgt>
<wgt id='31'> +3.5981196e+02 </wgt>
<wgt id='32'> +3.4855560e+02 </wgt>
<wgt id='33'> +4.3575938e+02 </wgt>
<wgt id='34'> +2.9762213e+02 </wgt>
<wgt id='35'> +4.0488528e+02 </wgt>
<wgt id='36'> +3.3257304e+02 </wgt>
<wgt id='37'> +3.2175339e+02 </wgt>
<wgt id='38'> +4.0896994e+02 </wgt>
<wgt id='39'> +2.7476437e+02 </wgt>
<wgt id='40'> +3.7365654e+02 </wgt>
<wgt id='41'> +3.0710581e+02 </wgt>
<wgt id='42'> +2.9717813e+02 </wgt>
<wgt id='43'> +3.7752216e+02 </wgt>
<wgt id='44'> +2.5407963e+02 </wgt>
<wgt id='45'> +4.8159400e+02 </wgt>
<wgt id='46'> +4.8649363e+02 </wgt>
<wgt id='47'> +5.0267915e+02 </wgt>
<wgt id='48'> +4.8647700e+02 </wgt>
<wgt id='49'> +4.8087893e+02 </wgt>
<wgt id='50'> +5.8003538e+02 </wgt>
<wgt id='51'> +4.7234418e+02 </wgt>
<wgt id='52'> +4.8028874e+02 </wgt>
<wgt id='53'> +4.8387797e+02 </wgt>
<wgt id='54'> +4.8414446e+02 </wgt>
<wgt id='55'> +4.2546342e+02 </wgt>
<wgt id='56'> +4.4135226e+02 </wgt>
<wgt id='57'> +4.6695016e+02 </wgt>
<wgt id='58'> +4.8075973e+02 </wgt>
<wgt id='59'> +4.7840396e+02 </wgt>
<wgt id='60'> +4.6544086e+02 </wgt>
<wgt id='61'> +4.6084732e+02 </wgt>
<wgt id='62'> +4.7655195e+02 </wgt>
<wgt id='63'> +4.8185128e+02 </wgt>
<wgt id='64'> +4.7228229e+02 </wgt>
<wgt id='65'> +5.7296126e+02 </wgt>
<wgt id='66'> +4.7049020e+02 </wgt>
<wgt id='67'> +4.8601323e+02 </wgt>
<wgt id='68'> +5.2244939e+02 </wgt>
<wgt id='69'> +4.7538462e+02 </wgt>
<wgt id='70'> +4.7181969e+02 </wgt>
<wgt id='71'> +4.9096171e+02 </wgt>
<wgt id='72'> +4.5783058e+02 </wgt>
<wgt id='73'> +4.7313361e+02 </wgt>
<wgt id='74'> +5.0159388e+02 </wgt>
<wgt id='75'> +4.9407653e+02 </wgt>
<wgt id='76'> +4.6474013e+02 </wgt>
<wgt id='77'> +4.6630260e+02 </wgt>
<wgt id='78'> +4.7727844e+02 </wgt>
<wgt id='79'> +4.6353905e+02 </wgt>
<wgt id='80'> +4.7576192e+02 </wgt>
<wgt id='81'> +4.6995543e+02 </wgt>
<wgt id='82'> +4.9321374e+02 </wgt>
<wgt id='83'> +4.9530538e+02 </wgt>
<wgt id='84'> +5.3473109e+02 </wgt>
<wgt id='85'> +5.0943429e+02 </wgt>
<wgt id='86'> +4.8147184e+02 </wgt>
<wgt id='87'> +4.8354044e+02 </wgt>
<wgt id='88'> +4.9235115e+02 </wgt>
<wgt id='89'> +4.9700988e+02 </wgt>
<wgt id='90'> +4.8907228e+02 </wgt>
<wgt id='91'> +5.1333343e+02 </wgt>
<wgt id='92'> +4.3139528e+02 </wgt>
<wgt id='93'> +4.7585278e+02 </wgt>
<wgt id='94'> +4.7562085e+02 </wgt>
<wgt id='95'> +4.5756132e+02 </wgt>
<wgt id='96'> +5.2996630e+02 </wgt>
<wgt id='97'> +4.8690877e+02 </wgt>
<wgt id='98'> +4.5871543e+02 </wgt>
<wgt id='99'> +4.6587167e+02 </wgt>
<wgt id='100'> +4.7039803e+02 </wgt>
<wgt id='101'> +5.1643682e+02 </wgt>
<wgt id='102'> +4.7482447e+02 </wgt>
<wgt id='103'> +5.3011058e+02 </wgt>
<wgt id='104'> +4.8329718e+02 </wgt>
<wgt id='105'> +4.9742702e+02 </wgt>
<wgt id='106'> +4.3246954e+02 </wgt>
<wgt id='107'> +4.6713976e+02 </wgt>
<wgt id='108'> +4.2107582e+02 </wgt>
<wgt id='109'> +4.4566595e+02 </wgt>
<wgt id='110'> +4.8116355e+02 </wgt>
<wgt id='111'> +4.6514011e+02 </wgt>
<wgt id='112'> +4.5368187e+02 </wgt>
<wgt id='113'> +4.3575442e+02 </wgt>
<wgt id='114'> +4.7153128e+02 </wgt>
<wgt id='115'> +4.7438639e+02 </wgt>
<wgt id='116'> +4.8840046e+02 </wgt>
<wgt id='117'> +4.8564675e+02 </wgt>
<wgt id='118'> +5.0103719e+02 </wgt>
<wgt id='119'> +4.5868846e+02 </wgt>
<wgt id='120'> +4.7434804e+02 </wgt>
<wgt id='121'> +4.6440784e+02 </wgt>
<wgt id='122'> +4.7385892e+02 </wgt>
<wgt id='123'> +4.9044401e+02 </wgt>
<wgt id='124'> +5.2382796e+02 </wgt>
<wgt id='125'> +5.2364221e+02 </wgt>
<wgt id='126'> +5.0466213e+02 </wgt>
<wgt id='127'> +4.9965729e+02 </wgt>
<wgt id='128'> +4.4139871e+02 </wgt>
<wgt id='129'> +5.5126397e+02 </wgt>
<wgt id='130'> +4.8788842e+02 </wgt>
<wgt id='131'> +5.1790222e+02 </wgt>
<wgt id='132'> +4.8002385e+02 </wgt>
<wgt id='133'> +4.8309938e+02 </wgt>
<wgt id='134'> +4.5186668e+02 </wgt>
<wgt id='135'> +4.9503506e+02 </wgt>
<wgt id='136'> +4.6300131e+02 </wgt>
<wgt id='137'> +4.5418015e+02 </wgt>
<wgt id='138'> +4.4225567e+02 </wgt>
<wgt id='139'> +4.9419266e+02 </wgt>
<wgt id='140'> +5.1081089e+02 </wgt>
<wgt id='141'> +4.8198489e+02 </wgt>
<wgt id='142'> +4.7990609e+02 </wgt>
<wgt id='143'> +4.7932365e+02 </wgt>
<wgt id='144'> +4.7758382e+02 </wgt>
<wgt id='145'> +4.8319495e+02 </wgt>
</rwgt>
</event>
<event>
 8      1 +4.8159400e+02 1.79403100e+02 7.54677100e-03 1.16882900e-01
       21 -1    0    0  503  502 +0.0000000000e+00 +0.0000000000e+00 +3.2986548038e+01 3.2986548038e+01 0.0000000000e+00 0.0000e+00 -1.0000e+00
       21 -1    0    0  501  503 -0.0000000000e+00 -0.0000000000e+00 -1.1713167032e+03 1.1713167032e+03 0.0000000000e+00 0.0000e+00 -1.0000e+00
        6  2    1    2  501    0 -1.5148664883e+00 +3.9735342949e+01 -8.2380567028e+02 8.4311401558e+02 1.7494075737e+02 0.0000e+00 0.0000e+00
       -6  2    1    2    0  502 +1.5148664883e+00 -3.9735342949e+01 -3.1452448488e+02 3.6118923565e+02 1.7306305227e+02 0.0000e+00 0.0000e+00
        5  1    3    3  501    0 -3.2108943535e+01 -2.7896169105e+01 -7.4972339763e+01 8.6325675411e+01 4.7000000000e+00 0.0000e+00 -1.0000e+00
       24  1    3    3    0    0 +3.0594077046e+01 +6.7631512054e+01 -7.4883333052e+02 7.5678834017e+02 8.0419002446e+01 0.0000e+00 -1.0000e+00
       -5  1    4    4    0  502 +2.9308120827e+01 +1.9278911840e+01 -2.1387770775e+02 2.1678654538e+02 4.7000000000e+00 0.0000e+00 1.0000e+00
      -24  1    4    4    0    0 -2.7793254338e+01 -5.9014254789e+01 -1.0064677713e+02 1.4440269027e+02 8.0419002446e+01 0.0000e+00 0.0000e+00
<mgrwt>
<rscale>  2 0.17894368E+03</rscale>
<asrwt>0</asrwt>
<pdfrwt beam="1">  1       21 0.50748533E-02 0.17940307E+03</pdfrwt>
<pdfrwt beam="2">  1       21 0.18020258E+00 0.17940307E+03</pdfrwt>
<totfact> 0.47970599E+04</totfact>
</mgrwt>
<rwgt>
<wgt id='1'> +6.3557998e+02 </wgt>
<wgt id='2'> +5.7292243e+02 </wgt>
<wgt id='3'> +5.2224210e+02 </wgt>
<wgt id='4'> +6.9271961e+02 </wgt>
<wgt id='5'> +4.6457415e+02 </wgt>
<wgt id='6'> +5.9301508e+02 </wgt>
<wgt id='7'> +5.3084321e+02 </wgt>
<wgt id='8'> +4.8074703e+02 </wgt>
<wgt id='9'> +6.4823002e+02 </wgt>
<wgt id='10'> +4.2571510e+02 </wgt>
<wgt id='11'> +5.4375823e+02 </wgt>
<wgt id='12'> +4.8655278e+02 </wgt>
<wgt id='13'> +4.4078042e+02 </wgt>
<wgt id='14'> +5.9672451e+02 </wgt>
<wgt id='15'> +3.9055138e+02 </wgt>
<wgt id='16'> +5.1616141e+02 </wgt>
<wgt id='17'> +4.7151359e+02 </wgt>
<wgt id='18'> +4.3496795e+02 </wgt>
<wgt id='19'> +5.5808483e+02 </wgt>
<wgt id='20'> +3.9133562e+02 </wgt>
<wgt id='21'> +4.3688251e+02 </wgt>
<wgt id='22'> +4.0040731e+02 </wgt>
<wgt id='23'> +5.2224210e+02 </wgt>
<wgt id='24'> +3.5860257e+02 </wgt>
<wgt id='25'> +4.4159197e+02 </wgt>
<wgt id='26'> +4.0043160e+02 </wgt>
<wgt id='27'> +3.6711969e+02 </wgt>
<wgt id='28'> +4.8074703e+02 </wgt>
<wgt id='29'> +3.2898229e+02 </wgt>
<wgt id='30'> +4.3359909e+02 </wgt>
<wgt id='31'> +3.9847899e+02 </wgt>
<wgt id='32'> +3.6929425e+02 </wgt>
<wgt id='33'> +4.6482085e+02 </wgt>
<wgt id='34'> +3.3411525e+02 </wgt>
<wgt id='35'> +4.0456089e+02 </wgt>
<wgt id='36'> +3.6921205e+02 </wgt>
<wgt id='37'> +3.3995175e+02 </wgt>
<wgt id='38'> +4.3496795e+02 </wgt>
<wgt id='39'> +3.0616837e+02 </wgt>
<wgt id='40'> +3.7095736e+02 </wgt>
<wgt id='41'> +3.3840717e+02 </wgt>
<wgt id='42'> +3.1169007e+02 </wgt>
<wgt id='43'> +4.0040731e+02 </wgt>
<wgt id='44'> +2.8087911e+02 </wgt>
<wgt id='45'> +4.8159400e+02 </wgt>
<wgt id='46'> +4.9500829e+02 </wgt>
<wgt id='47'> +4.9370766e+02 </wgt>
<wgt id='48'> +4.8054647e+02 </wgt>
<wgt id='49'> +4.5052972e+02 </wgt>
<wgt id='50'> +5.5908676e+02 </wgt>
<wgt id='51'> +4.5650392e+02 </wgt>
<wgt id='52'> +4.5875362e+02 </wgt>
<wgt id='53'> +4.7858793e+02 </wgt>
<wgt id='54'> +5.0803061e+02 </wgt>
<wgt id='55'> +5.2759432e+02 </wgt>
<wgt id='56'> +4.5828011e+02 </wgt>
<wgt id='57'> +5.0940319e+02 </wgt>
<wgt id='58'> +4.4479493e+02 </wgt>
<wgt id='59'> +5.2275230e+02 </wgt>
<wgt id='60'> +4.8717196e+02 </wgt>
<wgt id='61'> +4.3001544e+02 </wgt>
<wgt id='62'> +4.5026225e+02 </wgt>
<wgt id='63'> +5.0356810e+02 </wgt>
<wgt id='64'> +4.8214570e+02 </wgt>
<wgt id='65'> +4.5254285e+02 </wgt>
<wgt id='66'> +4.8417936e+02 </wgt>
<wgt id='67'> +4.8380520e+02 </wgt>
<wgt id='68'> +5.6943828e+02 </wgt>
<wgt id='69'> +5.0882671e+02 </wgt>
<wgt id='70'> +5.0771087e+02 </wgt>
<wgt id='71'> +4.5595594e+02 </wgt>
<wgt id='72'> +4.5083648e+02 </wgt>
<wgt id='73'> +4.4269720e+02 </wgt>
<wgt id='74'> +5.4141967e+02 </wgt>
<wgt id='75'> +5.1381536e+02 </wgt>
<wgt id='76'> +4.9332623e+02 </wgt>
<wgt id='77'> +4.6190725e+02 </wgt>
<wgt id='78'> +4.2348745e+02 </wgt>
<wgt id='79'> +5.0896243e+02 </wgt>
<wgt id='80'> +4.3614390e+02 </wgt>
<wgt id='81'> +4.9301866e+02 </wgt>
<wgt id='82'> +4.6824796e+02 </wgt>
<wgt id='83'> +4.7371160e+02 </wgt>
<wgt id='84'> +4.7538000e+02 </wgt>
<wgt id='85'> +4.4515062e+02 </wgt>
<wgt id='86'> +4.9949533e+02 </wgt>
<wgt id='87'> +4.7826315e+02 </wgt>
<wgt id='88'> +4.6819608e+02 </wgt>
<wgt id='89'> +4.2897808e+02 </wgt>
<wgt id='90'> +4.6035686e+02 </wgt>
<wgt id='91'> +4.3374327e+02 </wgt>
<wgt id='92'> +4.5244955e+02 </wgt>
<wgt id='93'> +4.8583146e+02 </wgt>
<wgt id='94'> +4.4726069e+02 </wgt>
<wgt id='95'> +5.0460271e+02 </wgt>
<wgt id='96'> +5.0154128e+02 </wgt>
<wgt id='97'> +4.4416979e+02 </wgt>
<wgt id='98'> +5.0746766e+02 </wgt>
<wgt id='99'> +4.1712255e+02 </wgt>
<wgt id='100'> +3.8540232e+02 </wgt>
<wgt id='101'> +5.5522389e+02 </wgt>
<wgt id='102'> +5.3360670e+02 </wgt>
<wgt id='103'> +4.7126404e+02 </wgt>
<wgt id='104'> +5.0702562e+02 </wgt>
<wgt id='105'> +4.9428667e+02 </wgt>
<wgt id='106'> +4.6514690e+02 </wgt>
<wgt id='107'> +4.6348487e+02 </wgt>
<wgt id='108'> +4.4815092e+02 </wgt>
<wgt id='109'> +4.7533644e+02 </wgt>
<wgt id='110'> +4.5224826e+02 </wgt>
<wgt id='111'> +4.6959347e+02 </wgt>
<wgt id='112'> +4.9465339e+02 </wgt>
<wgt id='113'> +4.9484004e+02 </wgt>
<wgt id='114'> +4.9580209e+02 </wgt>
<wgt id='115'> +4.4093067e+02 </wgt>
<wgt id='116'> +5.2159517e+02 </wgt>
<wgt id='117'> +4.6994209e+02 </wgt>
<wgt id='118'> +4.9852188e+02 </wgt>
<wgt id='119'> +5.1831293e+02 </wgt>
<wgt id='120'> +4.8014924e+02 </wgt>
<wgt id='121'> +4.7872281e+02 </wgt>
<wgt id='122'> +4.7352886e+02 </wgt>
<wgt id='123'> +4.6389237e+02 </wgt>
<wgt id='124'> +5.4056016e+02 </wgt>
<wgt id='125'> +5.8756561e+02 </wgt>
<wgt id='126'> +4.7526375e+02 </wgt>
<wgt id='127'> +4.6741811e+02 </wgt>
<wgt id='128'> +4.5759868e+02 </wgt>
<wgt id='129'> +4.9886533e+02 </wgt>
<wgt id='130'> +4.6209134e+02 </wgt>
<wgt id='131'> +4.5337021e+02 </wgt>
<wgt id='132'> +5.2816276e+02 </wgt>
<wgt id='133'> +5.2018579e+02 </wgt>
<wgt id='134'> +5.0128216e+02 </wgt>
<wgt id='135'> +4.6561969e+02 </wgt>
<wgt id='136'> +5.5945912e+02 </wgt>
<wgt id='137'> +4.9352189e+02 </wgt>
<wgt id='138'> +4.8352326e+02 </wgt>
<wgt id='139'> +4.9684652e+02 </wgt>
<wgt id='140'> +4.7233433e+02 </wgt>
<wgt id='141'> +5.3182871e+02 </wgt>
<wgt id='142'> +3.6380193e+02 </wgt>
<wgt id='143'> +4.9615390e+02 </wgt>
<wgt id='144'> +4.4590019e+02 </wgt>
<wgt id='145'> +4.4903844e+02 </wgt>
</rwgt>
</event>
<event>
 8      1 +4.8159400e+02 1.97305400e+02 7.54677100e-03 1.15211500e-01
       21 -1    0    0  501  502 +0.0000000000e+00 +0.0000000000e+00 +2.5166183780e+02 2.5166183780e+02 0.0000000000e+00 0.0000e+00 1.0000e+00
       21 -1    0    0  502  503 -0.0000000000e+00 -0.0000000000e+00 -2.3685137241e+02 2.3685137241e+02 0.0000000000e+00 0.0000e+00 1.0000e+00
       -6  2    1    2    0  503 -3.2769911123e+01 +8.7025968889e+01 -1.3672278177e+02 2.3973270103e+02 1.7358358953e+02 0.0000e+00 0.0000e+00
        6  2    1    2  501    0 +3.2769911123e+01 -8.7025968889e+01 +1.5153324717e+02 2.4878050917e+02 1.7401732791e+02 0.0000e+00 0.0000e+00
        5  1    4    4  501    0 +5.9014845241e+01 -3.1601087937e+01 +6.1612404352e-01 6.7110731828e+01 4.7000000000e+00 0.0000e+00 -1.0000e+00
       24  1    4    4    0    0 -2.6244934118e+01 -5.5424880952e+01 +1.5091712312e+02 1.8166977735e+02 8.0419002446e+01 0.0000e+00 0.0000e+00
       -5  1    3    3    0  503 -5.7309368015e+01 +8.5092809567e+01 -3.6721377796e+01 1.0906740801e+02 4.7000000000e+00 0.0000e+00 1.0000e+00
      -24  1    3    3    0    0 +2.4539456892e+01 +1.9331593221e+00 -1.0000140398e+02 1.3066529303e+02 8.0419002446e+01 0.0000e+00 -1.0000e+00
<mgrwt>
<rscale>  2 0.19720971E+03</rscale>
<asrwt>0</asrwt>
<pdfrwt beam="1">  1       21 0.38717206E-01 0.19730539E+03</pdfrwt>
<pdfrwt beam="2">  1       21 0.36438673E-01 0.19730539E+03</pdfrwt>
<totfact> 0.46613856E+04</totfact>
</mgrwt>
<rwgt>
<wgt id='1'> +6.2255593e+02 </wgt>
<wgt id='2'> +5.5345521e+02 </wgt>
<wgt id='3'> +5.0021117e+02 </wgt>
<wgt id='4'> +6.4822821e+02 </wgt>
<wgt id='5'> +4.4645116e+02 </wgt>
<wgt id='6'> +5.9028210e+02 </wgt>
<wgt id='7'> +5.1992363e+02 </wgt>
<wgt id='8'> +4.6696003e+02 </wgt>
<wgt id='9'> +6.1617812e+02 </wgt>
<wgt id='10'> +4.1644016e+02 </wgt>
<wgt id='11'> +5.5056388e+02 </wgt>
<wgt id='12'> +4.8498267e+02 </wgt>
<wgt id='13'> +4.3564094e+02 </wgt>
<wgt id='14'> +5.7521817e+02 </wgt>
<wgt id='15'> +3.8863171e+02 </wgt>
<wgt id='16'> +5.0792528e+02 </wgt>
<wgt id='17'> +4.5912586e+02 </wgt>
<wgt id='18'> +4.2009125e+02 </wgt>
<wgt id='19'> +5.2622931e+02 </wgt>
<wgt id='20'> +3.7772732e+02 </wgt>
<wgt id='21'> +4.3130930e+02 </wgt>
<wgt id='22'> +3.9216601e+02 </wgt>
<wgt id='23'> +5.0021117e+02 </wgt>
<wgt id='24'> +3.5233602e+02 </wgt>
<wgt id='25'> +4.4918906e+02 </wgt>
<wgt id='26'> +4.0232358e+02 </wgt>
<wgt id='27'> +3.6586337e+02 </wgt>
<wgt id='28'> +4.6696003e+02 </wgt>
<wgt id='29'> +3.2880822e+02 </wgt>
<wgt id='30'> +4.2788787e+02 </wgt>
<wgt id='31'> +3.8921170e+02 </wgt>
<wgt id='32'> +3.5800202e+02 </wgt>
<wgt id='33'> +4.4194201e+02 </wgt>
<wgt id='34'> +3.2373006e+02 </wgt>
<wgt id='35'> +4.0570580e+02 </wgt>
<wgt id='36'> +3.6563096e+02 </wgt>
<wgt id='37'> +3.3420412e+02 </wgt>
<wgt id='38'> +4.2009125e+02 </wgt>
<wgt id='39'> +3.0196852e+02 </wgt>
<wgt id='40'> +3.7840713e+02 </wgt>
<wgt id='41'> +3.4105908e+02 </wgt>
<wgt id='42'> +3.1178899e+02 </wgt>
<wgt id='43'> +3.9216601e+02 </wgt>
<wgt id='44'> +2.8180409e+02 </wgt>
<wgt id='45'> +4.8159400e+02 </wgt>
<wgt id='46'> +4.8263865e+02 </wgt>
<wgt id='47'> +5.0031947e+02 </wgt>
<wgt id='48'> +4.8405322e+02 </wgt>
<wgt id='49'> +4.8102800e+02 </wgt>
<wgt id='50'> +5.6759880e+02 </wgt>
<wgt id='51'> +4.7240930e+02 </wgt>
<wgt id='52'> +4.7899817e+02 </wgt>
<wgt id='53'> +4.8711212e+02 </wgt>
<wgt id='54'> +4.8416529e+02 </wgt>
<wgt id='55'> +4.2715663e+02 </wgt>
<wgt id='56'> +4.4644892e+02 </wgt>
<wgt id='57'> +4.6714194e+02 </wgt>
<wgt id='58'> +4.8405836e+02 </wgt>
<wgt id='59'> +4.7404956e+02 </wgt>
<wgt id='60'> +4.6162077e+02 </wgt>
<wgt id='61'> +4.6913885e+02 </wgt>
<wgt id='62'> +4.7583128e+02 </wgt>
<wgt id='63'> +4.8198148e+02 </wgt>
<wgt id='64'> +4.7604529e+02 </wgt>
<wgt id='65'> +5.7201993e+02 </wgt>
<wgt id='66'> +4.7014238e+02 </wgt>
<wgt id='67'> +4.8604572e+02 </wgt>
<wgt id='68'> +5.1717777e+02 </wgt>
<wgt id='69'> +4.7122095e+02 </wgt>
<wgt id='70'> +4.7295402e+02 </wgt>
<wgt id='71'> +4.9089356e+02 </wgt>
<wgt id='72'> +4.6461999e+02 </wgt>
<wgt id='73'> +4.7491751e+02 </wgt>
<wgt id='74'> +4.9708129e+02 </wgt>
<wgt id='75'> +4.9301674e+02 </wgt>
<wgt id='76'> +4.6602037e+02 </wgt>
<wgt id='77'> +4.6403074e+02 </wgt>
<wgt id='78'> +4.8170664e+02 </wgt>
<wgt id='79'> +4.6156064e+02 </wgt>
<wgt id='80'> +4.7737580e+02 </wgt>
<wgt id='81'> +4.7182662e+02 </wgt>
<wgt id='82'> +4.9541447e+02 </wgt>
<wgt id='83'> +4.9320991e+02 </wgt>
<wgt id='84'> +5.3178689e+02 </wgt>
<wgt id='85'> +5.0878366e+02 </wgt>
<wgt id='86'> +4.7923608e+02 </wgt>
<wgt id='87'> +4.8198650e+02 </wgt>
<wgt id='88'> +4.9126026e+02 </wgt>
<wgt id='89'> +4.9439034e+02 </wgt>
<wgt id='90'> +4.8714049e+02 </wgt>
<wgt id='91'> +5.1388559e+02 </wgt>
<wgt id='92'> +4.3901832e+02 </wgt>
<wgt id='93'> +4.7378899e+02 </wgt>
<wgt id='94'> +4.7840155e+02 </wgt>
<wgt id='95'> +4.5955949e+02 </wgt>
<wgt id='96'> +5.2407243e+02 </wgt>
<wgt id='97'> +4.8907730e+02 </wgt>
<wgt id='98'> +4.5843666e+02 </wgt>
<wgt id='99'> +4.6750695e+02 </wgt>
<wgt id='100'> +4.7688560e+02 </wgt>
<wgt id='101'> +5.0769997e+02 </wgt>
<wgt id='102'> +4.6836444e+02 </wgt>
<wgt id='103'> +5.2552124e+02 </wgt>
<wgt id='104'> +4.8151684e+02 </wgt>
<wgt id='105'> +4.9969895e+02 </wgt>
<wgt id='106'> +4.3962477e+02 </wgt>
<wgt id='107'> +4.7386046e+02 </wgt>
<wgt id='108'> +4.2852286e+02 </wgt>
<wgt id='109'> +4.5013976e+02 </wgt>
<wgt id='110'> +4.8220258e+02 </wgt>
<wgt id='111'> +4.6773569e+02 </wgt>
<wgt id='112'> +4.5813416e+02 </wgt>
<wgt id='113'> +4.3978724e+02 </wgt>
<wgt id='114'> +4.7827761e+02 </wgt>
<wgt id='115'> +4.8194501e+02 </wgt>
<wgt id='116'> +4.8260807e+02 </wgt>
<wgt id='117'> +4.8819443e+02 </wgt>
<wgt id='118'> +4.9539734e+02 </wgt>
<wgt id='119'> +4.6110338e+02 </wgt>
<wgt id='120'> +4.7933875e+02 </wgt>
<wgt id='121'> +4.6646246e+02 </wgt>
<wgt id='122'> +4.7473175e+02 </wgt>
<wgt id='123'> +4.8899574e+02 </wgt>
<wgt id='124'> +5.1618073e+02 </wgt>
<wgt id='125'> +5.1684382e+02 </wgt>
<wgt id='126'> +5.0195676e+02 </wgt>
<wgt id='127'> +4.9715648e+02 </wgt>
<wgt id='128'> +4.4615216e+02 </wgt>
<wgt id='129'> +5.4754286e+02 </wgt>
<wgt id='130'> +4.8697503e+02 </wgt>
<wgt id='131'> +5.1735949e+02 </wgt>
<wgt id='132'> +4.7538498e+02 </wgt>
<wgt id='133'> +4.7885797e+02 </wgt>
<wgt id='134'> +4.5151971e+02 </wgt>
<wgt id='135'> +4.9461938e+02 </wgt>
<wgt id='136'> +4.5977266e+02 </wgt>
<wgt id='137'> +4.5338008e+02 </wgt>
<wgt id='138'> +4.3873163e+02 </wgt>
<wgt id='139'> +4.9154352e+02 </wgt>
<wgt id='140'> +5.1272065e+02 </wgt>
<wgt id='141'> +4.8091129e+02 </wgt>
<wgt id='142'> +4.8508398e+02 </wgt>
<wgt id='143'> +4.7686981e+02 </wgt>
<wgt id='144'> +4.8038280e+02 </wgt>
<wgt id='145'> +4.8293225e+02 </wgt>
</rwgt>
</event>
</LesHouchesEvents>
